 TITLE = "Adapted Mesh"
 VARIABLES = "X", "Y"
 ZONE T = "Domain", N=       16792 E=       32807 DATAPACKING=POINT, ZONETYPE=FEQUADRILATERAL
   0.0000000000000000        3.2500000000000000     
   0.0000000000000000        3.3504264403796751     
   0.0000000000000000        3.4522439508502121     
   0.0000000000000000        3.5555040443587358     
   0.0000000000000000        3.6602562515627728     
   0.0000000000000000        3.7667094589135810     
   0.0000000000000000        3.8750103428752229     
   0.0000000000000000        3.9848968877087199     
   0.0000000000000000        4.0964133173320878     
   0.0000000000000000        4.2096022757569038     
   0.0000000000000000        4.3245049102734887     
   0.0000000000000000        4.4411609493759867     
   0.0000000000000000        4.5596674899426439     
   0.0000000000000000        4.6801241848694204     
   0.0000000000000000        4.8024097601296880     
   0.0000000000000000        4.9265600995561876     
   0.0000000000000000        5.0526099292828839     
   0.0000000000000000        5.1805928725304602     
   0.0000000000000000        5.3105415014667710     
   0.0000000000000000        5.4424873857290779     
   0.0000000000000000        5.5764611380171853     
   0.0000000000000000        5.7124924569625719     
   0.0000000000000000        5.8506101675314843     
   0.0000000000000000        5.9908422587949266     
   0.0000000000000000        6.1332159201377543     
   0.0000000000000000        6.2778625230899996     
   0.0000000000000000        6.4248077049980994     
   0.0000000000000000        6.5739958666268610     
   0.0000000000000000        6.7254506692463778     
   0.0000000000000000        6.8791951512462619     
   0.0000000000000000        7.0352517526663689     
   0.0000000000000000        7.1936961194224489     
   0.0000000000000000        7.3548092650017551     
   0.0000000000000000        7.5183187501118693     
   0.0000000000000000        7.6842443452514830     
   0.0000000000000000        7.8526844661047184     
   0.0000000000000000        8.0239635357024071     
   0.0000000000000000        8.1977332005657892     
   0.0000000000000000        8.3740428188936828     
   0.0000000000000000        8.5533791984133014     
   0.0000000000000000        8.7352740366183461     
   0.0000000000000000        8.9199964110510006     
   0.0000000000000000        9.1076526542198781     
   0.0000000000000000        9.2980086622352207     
   0.0000000000000000        9.4915615659176833     
   0.0000000000000000        9.6878045747222643     
   0.0000000000000000        9.8863443173340588     
   0.0000000000000000        10.085208527980990     
   0.0000000000000000        10.284072819496220     
   0.0000000000000000        10.482937018906140     
   0.0000000000000000        10.681801308399301     
   0.0000000000000000        10.880665496733480     
   0.0000000000000000        11.079529755673720     
   0.0000000000000000        11.278393986332841     
   0.0000000000000000        11.477258248634120     
   0.0000000000000000        11.676122475070819     
   0.0000000000000000        11.874986731486979     
   0.0000000000000000        12.073850955215850     
   0.0000000000000000        12.272715224212151     
   0.0000000000000000        12.471579444516809     
   0.0000000000000000        12.670443716789441     
   0.0000000000000000        12.869307923735599     
   0.0000000000000000        13.068172112724911     
   0.0000000000000000        13.267036414837360     
   0.0000000000000000        13.465900638833650     
   0.0000000000000000        13.664764878916960     
   0.0000000000000000        13.863629119000271     
   0.0000000000000000        14.062493359083581     
   0.0000000000000000        14.261357599166891     
   0.0000000000000000        14.460221839250201     
   0.0000000000000000        14.659086079333511     
   0.0000000000000000        14.857950319416821     
   0.0000000000000000        15.056814559500131     
   0.0000000000000000        15.255678799583441     
   0.0000000000000000        15.454543039666749     
   0.0000000000000000        15.653407279750059     
   0.0000000000000000        15.852271519833380     
   0.0000000000000000        16.051135759916690     
   0.0000000000000000        16.250000000000000     
   9.9999999999999922E-002   3.2499999953589800     
   9.9999999999999922E-002   3.3504264357386542     
   9.9999999999999922E-002   3.4522439462091921     
   9.9999999999999922E-002   3.5555040397177149     
   9.9999999999999922E-002   3.6602562469217532     
   9.9999999999999922E-002   3.7667094542725610     
   9.9999999999999922E-002   3.8750103382342020     
   9.9999999999999922E-002   3.9848968830676998     
   9.9999999999999922E-002   4.0964133126910678     
   9.9999999999999922E-002   4.2096022711158838     
   9.9999999999999922E-002   4.3245049056324687     
   9.9999999999999922E-002   4.4411609447349667     
   9.9999999999999922E-002   4.5596674853016239     
   9.9999999999999922E-002   4.6801241802284004     
   9.9999999999999922E-002   4.8024097554886680     
   9.9999999999999922E-002   4.9265600949151684     
   9.9999999999999922E-002   5.0526099246418639     
   9.9999999999999922E-002   5.1805928678894402     
   9.9999999999999922E-002   5.3105414968257509     
   9.9999999999999922E-002   5.4424873810880579     
   9.9999999999999922E-002   5.5764611333761653     
   9.9999999999999922E-002   5.7124924523215519     
   9.9999999999999922E-002   5.8506101628904643     
   9.9999999999999922E-002   5.9908422541539066     
   9.9999999999999922E-002   6.1332159154967343     
   9.9999999999999922E-002   6.2778625184489796     
   9.9999999999999922E-002   6.4248077003570776     
   9.9999999999999922E-002   6.5739958619858410     
   9.9999999999999922E-002   6.7254506646053578     
   9.9999999999999922E-002   6.8791951466052419     
   9.9999999999999922E-002   7.0352517480253489     
   9.9999999999999922E-002   7.1936961147814289     
   9.9999999999999922E-002   7.3548092603607351     
   9.9999999999999922E-002   7.5183187454708493     
   9.9999999999999922E-002   7.6842443406104630     
   9.9999999999999922E-002   7.8526844614636984     
   9.9999999999999922E-002   8.0239635310613870     
   9.9999999999999922E-002   8.1977331959247692     
   9.9999999999999922E-002   8.3740428142526628     
   9.9999999999999922E-002   8.5533791937722814     
   9.9999999999999922E-002   8.7352740319773261     
   9.9999999999999922E-002   8.9199964064099806     
   9.9999999999999922E-002   9.1076526495788581     
   9.9999999999999922E-002   9.2980086575942007     
   9.9999999999999922E-002   9.4915615612766633     
   9.9999999999999922E-002   9.6878045700812443     
   9.9999999999999922E-002   9.8863443126930388     
   9.9999999999999922E-002   10.085208523339970     
   9.9999999999999922E-002   10.284072814855200     
   9.9999999999999922E-002   10.482937014265120     
   9.9999999999999922E-002   10.681801303758281     
   9.9999999999999922E-002   10.880665492092460     
   9.9999999999999922E-002   11.079529751032700     
   9.9999999999999922E-002   11.278393981691821     
   9.9999999999999922E-002   11.477258243993100     
   9.9999999999999922E-002   11.676122470429799     
   9.9999999999999922E-002   11.874986726845959     
   9.9999999999999922E-002   12.073850950574830     
   9.9999999999999922E-002   12.272715219571131     
   9.9999999999999922E-002   12.471579439875789     
   9.9999999999999922E-002   12.670443712148421     
   9.9999999999999922E-002   12.869307919094579     
   9.9999999999999922E-002   13.068172108083891     
   9.9999999999999922E-002   13.267036410196340     
   9.9999999999999922E-002   13.465900634192630     
   9.9999999999999922E-002   13.664764874275940     
   9.9999999999999922E-002   13.863629114359250     
   9.9999999999999922E-002   14.062493354442561     
   9.9999999999999922E-002   14.261357594525871     
   9.9999999999999922E-002   14.460221834609181     
   9.9999999999999922E-002   14.659086074692491     
   9.9999999999999922E-002   14.857950314775801     
   9.9999999999999922E-002   15.056814554859111     
   9.9999999999999922E-002   15.255678794942421     
   9.9999999999999922E-002   15.454543035025729     
   9.9999999999999922E-002   15.653407275109039     
   9.9999999999999922E-002   15.852271515192360     
   9.9999999999999922E-002   16.051135755275670     
   9.9999999999999895E-002   16.249999986076940     
  -7.9724550476318417        5.8643077723214612     
   5.5231907803858578        8.6250156625051844     
   5.8253941737276138        8.3238576950889076     
   5.9226849624832276        7.8774016506406790     
   5.6056047497870471        8.0084781195254742     
   5.7337550179097025        7.1431058486060115     
   5.5279565595718889        7.3463295424675881     
   5.5927877790978755        7.6845173122160890     
   6.2650330696681431        8.1384788949659566     
   5.4550671389905032        7.0336299607185255     
   4.6744183489364319        6.9041335778171415     
   5.3057021977472392        9.1330268507190553     
   5.5683140235755033        8.9691496622214064     
   5.2629510902080439        8.8463990026818067     
   5.2251284794655399        8.5702807823146223     
   5.8651230733026072        8.7694440349545335     
   6.2110990316188630        8.5775197317849194     
   5.3551976550359006        8.2708210812967629     
   5.9176789355822832        7.4320171692848973     
   5.2977489580804615        7.8919235631355917     
   6.5974346104521988        8.4232544986638711     
   6.7134482350364246        7.9467260252024454     
   6.3023010842599136        7.6831049855235385     
   5.1801382957977040        7.2340342199430143     
   5.7271076961420579        6.8690055029038284     
   5.0787627714250831        6.8722590427168271     
   5.2495625653795077        7.5588125353971707     
   6.9864589746487589        8.3183967302067483     
   7.1163561293602866        7.9849597263476682     
   7.3568005847586493        8.2289359401310129     
   7.6952453445192388        8.1531033899532517     
   5.1291396679824999        9.4381128825135843     
   4.9520726667498201        9.0680939555240911     
   4.9616012915867955        8.7134757327327570     
   5.8410260125601168        9.0960030920115607     
   4.9821917881254540        8.4020804605433579     
   4.9894725199521606        8.0810107487849336     
   6.5017933903125229        8.7847119875375732     
   5.4419124137325703        6.7453228517990356     
   4.9024653977054902        7.4476315294796898     
   6.0055315303699546        7.0447104978888557     
   4.9549698065908423        7.7568782518328092     
   6.3099928743554372        7.2557022266685136     
   6.6685276573946677        7.4589992352876591     
   7.0545759470153007        7.6267570212945657     
   7.2407251696178196        8.5560158465689788     
   7.9620833641197573        8.3096731397405197     
   7.4795526491921018        7.8117480268295445     
   4.8232806022618098        7.1527749118216688     
   4.7299251759192353        6.5955720831128701     
   4.8040724470352121        9.6918536880379733     
   5.1054936926538890        9.7572697571575180     
   4.7112942792379826        9.3751254669862973     
   4.6037365531805063        9.1169447571218249     
   4.6451665903230923        8.8542497620797960     
   5.5735853140427540        9.3370685997760638     
   4.6589276323950024        8.5474160073801002     
   6.1901265810745789        9.0158004056654288     
   4.6617806053082003        8.2406083659997567     
   5.9855821257113382        6.7450578944529473     
   4.6447358435948054        7.9356563329994616     
   6.6170182411195633        7.0947563992342069     
   6.8974268494782338        8.7660224475251685     
   7.6355545944650407        8.5486680924943066     
   7.3474827040242872        7.4105225633970155     
   4.6044688821750199        7.6372164427599767     
   4.4208774168068352        6.9382667406545977     
   5.2032371796435211        6.4470176439227602     
   4.5588748305086124        7.3549034675923179     
   4.4999180855516023        7.1102737213632370     
   8.0605638445719876        7.8686867744035913     
   8.3442465306969655        8.3113642692887097     
   4.7867096346103626        6.2380615443497440     
   4.4612821816558528        6.3734346008032636     
   4.4142677863366044        6.5779303741323440     
   4.4486987343419111        6.7599952377673311     
   8.6688088803979859        7.9711446319699366     
   9.0114041628893933        8.2246876766302783     
   4.4361094642506291        6.0902806487824339     
   4.3183621389388946        5.7654347951062270     
   3.9003555189079049        4.8968642557877686     
   3.9459729612392600        5.1792081776587908     
   3.9267589031132628        5.4091962861144047     
   4.2449158098032322        5.3810830315384948     
   4.6040892392720218        10.276326642185023     
   4.9066489140984766        9.9905526087090450     
   4.5378687101830648        9.9451112191013191     
   4.3908308921439758        9.6362745728117503     
   4.3420458306367671        9.2969002963362666     
   4.3212039381552625        8.9941131564981340     
   5.4085976751558009        9.6948242224341392     
   4.3283499049183440        8.6937599174407936     
   5.9739985429850098        9.3723398167546392     
   6.3320068342537894        6.8387149015932076     
   6.5976110793044507        9.1231558366809793     
   4.3320473389875955        8.3929281616016489     
   4.3230783986895558        8.0989383716038041     
   7.3349463523567948        8.9054325522533304     
   7.0087693813968288        7.1661751368884099     
   5.7064729525910707        6.5145952172109096     
   4.2951809679777586        7.8130232768953736     
   7.7409094734341464        7.4231440691549162     
   8.0932179202141707        8.6632179390673638     
   4.1904618928677051        6.4812891631001985     
   5.1190339703974352        6.0369384555207457     
   4.2305564291941202        7.5266689183792685     
   4.1998698754882158        6.6793905511363842     
   4.2510484111485631        7.2634079059574619     
   4.2103567393242693        6.8665083309451713     
   4.2282361539801121        7.0539200493999754     
   8.4620214629166242        7.5796214128442898     
   8.7328842161837823        8.3627375575225482     
   4.1715192638007608        6.2579171148865349     
   4.7343464884193933        5.8911751993568728     
   4.1106313590595853        6.0172713164393015     
   9.1772870418265597        7.9137959224560683     
   9.3978783524445255        8.2624981229330068     
   4.0093692998055790        5.8281693688877505     
   4.0029014605254947        5.6162071408581413     
   9.6506789036421985        7.9390219749290303     
   9.8077110053207210        8.2696512675197322     
   10.117458171995043        8.0350974694250006     
   10.513302967286540        8.1591468090251347     
   10.841857023797715        8.0635593310400520     
   11.143308493137834        8.1755039095484339     
   11.446528754090874        8.0915337999982171     
   11.740540929296564        8.2170813334024402     
   12.134391200053082        8.1658578414530290     
   56.776271950655406        8.2073988983088366     
   56.281567166628882        8.1580534149943578     
   55.781488354892574        8.1372914580806839     
   55.280413228116657        8.1273059135692733     
   54.779480879862184        8.1224411304343409     
   54.278989194619882        8.1202107368156486     
   53.778954822349377        8.1193024129677802     
   53.279305070881463        8.1190054190764656     
   52.779950404472295        8.1189606581582439     
   52.280808390658230        8.1190066809971935     
   51.781810244209190        8.1190804491131683     
   51.282902521970662        8.1191608880651742     
   50.784046999481241        8.1192420027780692     
   50.285218885819113        8.1193223213868553     
   49.786403757018860        8.1194015043746770     
   49.287594138438521        8.1194794587524122     
   48.788786599799693        8.1195561483808731     
   48.289979754708867        8.1196315568782396     
   47.791173112585085        8.1197056773571479     
   47.292366522273895        8.1197785072858437     
   46.793559943341769        8.1198500457422647     
   46.294753366411975        8.1199202923383496     
   45.795946789655318        8.1199892469478279     
   45.297140212833540        8.1200569095884827     
   44.798333635966841        8.1201232803070731     
   44.299527059083019        8.1201883591281767     
   43.800720482194002        8.1202521460591139     
   43.301913905303934        8.1203146411018512     
   42.803107328414285        8.1203758442570102     
   42.304300751525382        8.1204357555248645     
   41.805494174636912        8.1204943749056397     
   41.306687597748365        8.1205517023994318     
   40.807881020859433        8.1206077380061483     
   40.309074443969848        8.1206624817257413     
   39.810267867076767        8.1207159335594508     
   39.311461290151811        8.1207680935235249     
   38.812654712932762        8.1208189617689968     
   38.313848133436672        8.1208685392874180     
   37.815041540624478        8.1209168308934192     
   37.316234889786799        8.1209638541952831     
   36.817428048736254        8.1210096558448104     
   36.318620754874921        8.1210543310891961     
   35.819812728168117        8.1210980287869745     
   35.321003993525181        8.1211408714196658     
   34.822195071748197        8.1211827609636753     
   34.323386676243210        8.1212232830711901     
   33.824579241970440        8.1212618972617161     
   33.325772869131292        8.1212982131661047     
   32.826967521354518        8.1213322091470133     
   32.328162972842250        8.1213644200338546     
   31.829358674627024        8.1213957149546978     
   31.330553991173531        8.1214265794305049     
   30.831748606825400        8.1214567901226982     
   30.332942607909253        8.1214858802177599     
   29.834136248403446        8.1215136142530149     
   29.335329734777488        8.1215399815512033     
   28.836523174046775        8.1215650209073313     
   28.337716628280827        8.1215887325331746     
   27.838910274316991        8.1216109635956482     
   27.340104986650811        8.1216308382119013     
   26.841304473875166        8.1216444222761499     
   26.342521809746881        8.1216370047897311     
   25.843795745734123        8.1215621679511081     
   25.345224140405975        8.1212949748221384     
   24.847020665820487        8.1205450881607586     
   24.349597455477639        8.1187206236050606     
   23.853687292494250        8.1147356378639319     
   23.360619287809993        8.1067109753575508     
   22.873479119488447        8.0913281385197351     
   22.404546244933563        8.0622441642668914     
   22.038358645845559        8.0105070081501548     
   21.773495385214506        8.1283298466555198     
   21.510944840881265        8.0455880352993194     
   21.260094969217693        8.1423329524308610     
   21.009969914116496        8.0537678820984251     
   20.760745011217210        8.1423219315194704     
   20.515540301341879        8.0447249531143949     
   20.233130403399876        8.1153165571780175     
   18.765972747223476        8.1162454478535366     
   18.483487474943438        8.0465335170194106     
   18.238907615980633        8.1448513584722235     
   17.989666702860319        8.0584162057637148     
   17.741495429183040        8.1485296943178920     
   17.491093378090511        8.0571753600476370     
   17.236871000344514        8.1432934577067968     
   16.983316056312763        8.0447562161246733     
   16.717400724562307        8.1258138796971036     
   16.449863881965566        8.0065722255132670     
   16.080310636595428        8.0567477006203791     
   15.607709243002498        8.0842287571416076     
   15.117698229770429        8.0985789383421540     
   14.622749636029251        8.1064558318368896     
   14.125742579790955        8.1116438214413709     
   13.627407062420680        8.1168641916820548     
   13.127609557003220        8.1247447151722163     
   12.626779864694521        8.1388573352477831     
   3.5882770682348011        4.5265481426401690     
   3.6043446376334498        4.8256465964254929     
   3.9720549905272717        4.6696271931146507     
   3.6607366381726534        5.0755816759636314     
   3.6924131689229220        5.3200748649697873     
   4.2337687642236119        4.9904312638267063     
   4.3853744488433462        10.819030933282447     
   4.3665715742396616        10.555117054944736     
   4.2775411000000094        10.365869186523350     
   4.2791770272333007        10.154769884100876     
   4.7163572620715026        10.611240427346765     
   4.2036128914114865        9.9134116696326462     
   4.0786327209306368        9.7320513236320085     
   5.2375220293619638        9.9569336870600083     
   4.0155010367058361        9.4957184920557900     
   3.9641438631296442        9.1650955427057088     
   5.7500953236110162        9.6404405277893375     
   3.9986471195190294        8.8452947273207911     
   6.3150578132204354        9.3677607472442030     
   3.9717299107889938        8.5406431092287072     
   4.0094091080069738        8.2508842889009095     
   7.0188928544700566        9.2330716088063287     
   6.7586919767962463        6.7795215459967180     
   6.1308818976984965        6.4760980845354199     
   3.9589876557887744        7.9754011234001778     
   7.4660371662512048        7.0506828884551949     
   7.7789002973209493        9.0132885123901634     
   5.5237768931252225        6.1364129752077972     
   3.9727209480041075        7.3710484398250982     
   3.9234603530959293        7.5399491136243233     
   3.9744056359138344        7.7174592138304421     
   8.1492290561019587        7.4003018728960850     
   8.5637514774678056        8.6896919464493028     
   3.9703375658503832        6.9786015215502779     
   3.9801154133353842        7.1709908280986365     
   3.8785368487067244        6.1846250857914589     
   5.0540191084830557        5.6884285784186766     
   3.9186050199612739        6.3973025590715471     
   3.9571701378565796        6.7907204182871972     
   3.9416474304772806        6.5992158321477401     
   8.9060947451970200        7.5428617873237256     
   9.0876841349902353        8.6127496495461990     
   3.8195243070655711        5.9739563447213442     
   4.6632213096327320        5.5366040681840500     
   3.7675858973840679        5.7644491773319118     
   3.7254884555390473        5.5472615502509672     
   9.4331274679513548        7.5478743965675648     
   9.6515583495965540        8.6144258853360522     
   9.9654136704687986        7.6089162421623326     
   10.212011983391875        8.4974297030244816     
   10.542357642634229        7.7390922817309731     
   10.834488702677740        8.4634846383443971     
   11.155918347275380        7.7844165126742046     
   11.417449768405172        8.4794012118264757     
   11.756817184528163        7.8066036416648128     
   11.930561561292350        8.5484860119855917     
   57.242606575360625        8.3639360398527387     
   56.901806478826209        8.5965428378359654     
   57.163084747197082        7.8055696491960305     
   56.571600556802309        7.7550439141778345     
   56.494221687229327        8.5709189308523133     
   56.049291459990208        7.7299571625377350     
   56.015494271102966        8.5532152276322062     
   55.541467177483824        7.7171975469303584     
   55.520835349554616        8.5426921953791197     
   55.038096474086487        7.7108087010828390     
   55.021896091805772        8.5368272428467833     
   54.536707098843074        7.7078142337182740     
   54.521835623419150        8.5337953280456436     
   54.036417646494264        7.7065701369692343     
   54.021652036293233        8.5323737806335238     
   53.536800200292696        7.7061558293271597     
   53.521653603965092        8.5317888259550170     
   53.037611900777165        7.7060881891456301     
   53.021900706647600        8.5315962188568886     
   52.538703947123039        7.7061416342875360     
   52.522365152917956        8.5315699456870249     
   52.039978735825478        7.7062262600829037     
   52.022993197597224        8.5316085839904936     
   51.541368765747002        7.7063132823527356     
   51.523731430336760        8.5316713692518995     
   51.042827160314594        7.7063965393569012     
   51.024536882670816        8.5317429570265482     
   50.544322934683045        7.7064762013496688     
   50.525379490583802        8.5318175083333632     
   50.045837288149158        7.7065533407954145     
   50.026240637628753        8.5318926240180382     
   49.547359953194587        7.7066286871360070     
   49.527110089932449        8.5319672515016176     
   49.048885937987251        7.7067025926814008     
   49.027982862098987        8.5320409315878010     
   48.550413099703711        7.7067751981161043     
   48.528856810370527        8.5321134774467051     
   48.051940632631414        7.7068465534288313     
   48.029731125222789        8.5321848206864797     
   47.553468271758476        7.7069166751690465     
   47.530605539829871        8.5322549391907980     
   47.054995938349734        7.7069855666849261     
   47.031479977943029        8.5323238267120747     
   46.556523609520127        7.7070532259801769     
   46.532354420807735        8.5323914817205306     
   46.058051279093768        7.7071196509626683     
   46.033228864484528        8.5324579038940431     
   45.559578946507166        7.7071848414744286     
   45.534103308274688        8.5325230931769251     
   45.061106612633729        7.7072487982837119     
   45.034977752076422        8.5325870495636416     
   44.562634278200463        7.7073115219220352     
   44.535852195878590        8.5326497730552635     
   44.064161943563064        7.7073730125722912     
   44.036726639680609        8.5327112636524944     
   43.565689608866428        7.7074332702905348     
   43.537601083482578        8.5327715213555173     
   43.067217274171938        7.7074922950972571     
   43.038475527284540        8.5328305461643659     
   42.568744939504320        7.7075500870009863     
   42.539349971086509        8.5328883380790383     
   42.070272604860939        7.7076066460107668     
   42.040224414888485        8.5329448970995276     
   41.571800270223036        7.7076619721338151     
   41.541098858690461        8.5330002232258373     
   41.073327935574532        7.7077160653696257     
   41.041973302492437        8.5330543164579584     
   40.574855600910503        7.7077689257133732     
   40.542847746294399        8.5331071767958893     
   40.076383266219445        7.7078205531680792     
   40.043722190096304        8.5331588042396422     
   39.577910931383812        7.7078709478004974     
   39.544596633897619        8.5332091987894660     
   39.079438595535841        7.7079201102029975     
   39.045471077691083        8.5332583604488530     
   38.580966252622140        7.7079680444563490     
   38.546345521403460        8.5333062892487561     
   38.082493866520117        7.7080147713250877     
   38.047219964520664        8.5333529853837273     
   37.584021273154640        7.7080603705888828     
   37.548094404485497        8.5333984497557100     
   37.085547924027978        7.7081050751299802     
   37.048968832076419        8.5334426853698329     
   36.587072484266827        7.7081493700848407     
   36.549843224568654        8.5334856998918696     
   36.088592866712354        7.7081940386633736     
   36.050717548245537        8.5335275082666033     
   35.590107795146928        7.7082400562361908     
   35.551591784976516        8.5335681287681098     
   35.091619180483178        7.7082877551315159     
   35.052465966031690        8.5336075648939058     
   34.593131896894072        7.7083354338920635     
   34.553340166126475        8.5336457860988144     
   34.094650254348593        7.7083795144787812     
   34.054214453860347        8.5336827346433708     
   33.596175778501774        7.7084165304039702     
   33.555088859141854        8.5337183552666485     
   33.097708470852425        7.7084447264559817     
   33.055963385414721        8.5337526234684091     
   32.599247650481523        7.7084656048173619     
   32.556838019774979        8.5337855691052091     
   32.100790660782856        7.7084847360040261     
   32.057712717488315        8.5338172761375812     
   31.602333056209822        7.7085078857909632     
   31.558587405646801        8.5338478255157746     
   31.103871391246237        7.7085358025496307     
   31.059462025588243        8.5338772304291126     
   30.605405042524957        7.7085652048703182     
   30.560336565618172        8.5339054469988191     
   30.106935345615462        7.7085933818730243     
   30.061211049545218        8.5339324338846705     
   29.608463920709418        7.7086196953176875     
   29.562085506256956        8.5339581787794554     
   29.109991818164421        7.7086443905964694     
   29.062959954433868        8.5339826838958839     
   28.611519494389213        7.7086677155628918     
   28.563834410485455        8.5340059440849654     
   28.113047117290584        7.7086897451031486     
   28.064708940353331        8.5340278946497072     
   27.614575018278629        7.7087102179084175     
   27.565583899719112        8.5340481391156260     
   27.116104899953203        7.7087275634230146     
   27.066460905735088        8.5340647185241014     
   26.617643925108780        7.7087352242036724     
   26.567346043504898        8.5340695766711541     