 TITLE = "Edge Error"
 VARIABLES = "X", "Y","Estimate1" 
 ZONE T = "Domain", I=       32349  DATAPACKING=POINT, ZONETYPE=ORDERED
   5.0000000000000003E-002   3.2500000000000000        1.1753573551803028E+018
   0.0000000000000000        3.3002132199999998        1.1803695490857349E+018
  0.10000000000000001        3.3002132199999998        5.6081961145395680E+017
   5.0000000000000003E-002   3.3504264400000001        3.4789083124924858E+017
   0.0000000000000000        3.4013351950000001        3.5421378189628698E+017
  0.10000000000000001        3.4013351950000001        2.6294364943531773E+017
   5.0000000000000003E-002   3.4522439500000002        1.0628396344937998E+017
   0.0000000000000000        3.5038739950000002        1.0974891631339690E+017
  0.10000000000000001        3.5038739950000002        76893654406362320.     
   5.0000000000000003E-002   3.5555040400000002        36908865377981528.     
   0.0000000000000000        3.6078801450000002        38662852169360512.     
  0.10000000000000001        3.6078801450000002        26481414311967528.     
   5.0000000000000003E-002   3.6602562500000002        12715798568795176.     
   0.0000000000000000        3.7134828550000001        13536375753616488.     
  0.10000000000000001        3.7134828500000001        11661108588199572.     
   5.0000000000000003E-002   3.7667094550000000        8766468008501487.0     
   0.0000000000000000        3.8208599000000003        9494161998125560.0     
  0.10000000000000001        3.8208598949999999        8862162992450794.0     
   5.0000000000000003E-002   3.8750103400000002        5610453617865730.0     
   0.0000000000000000        3.9299536150000001        5715789805361423.0     
  0.10000000000000001        3.9299536100000001        6165133358977458.0     
   5.0000000000000003E-002   3.9848968849999999        3647498841332858.0     
   0.0000000000000000        4.0406551049999999        3851545022656675.5     
  0.10000000000000001        4.0406550950000000        4067560492145746.5     
   5.0000000000000003E-002   4.0964133149999995        2628669016025610.5     
   0.0000000000000000        4.1530078000000001        2867634612441919.5     
  0.10000000000000001        4.1530077900000002        2975363121081618.0     
   5.0000000000000003E-002   4.2096022749999999        1947406521764702.0     
   0.0000000000000000        4.2670535950000001        2225601203120718.5     
  0.10000000000000001        4.2670535899999997        2237621505039796.0     
   5.0000000000000003E-002   4.3245049099999999        1518072497985735.0     
   0.0000000000000000        4.3828329300000002        1770923260479246.0     
  0.10000000000000001        4.3828329249999998        1751287559305981.5     
   5.0000000000000003E-002   4.4411609450000000        1205634996557560.0     
   0.0000000000000000        4.5004142199999997        1428756319449468.8     
  0.10000000000000001        4.5004142149999993        1399149926063250.5     
   5.0000000000000003E-002   4.5596674899999998        964483714560955.50     
   0.0000000000000000        4.6198958349999995        1161785158149176.2     
  0.10000000000000001        4.6198958349999995        1133093307598407.2     
   5.0000000000000003E-002   4.6801241800000000        779828577021275.00     
   0.0000000000000000        4.7412669699999999        953617898416211.00     
  0.10000000000000001        4.7412669699999999        928037355362184.88     
   5.0000000000000003E-002   4.8024097599999997        637478332350148.75     
   0.0000000000000000        4.8644849299999997        791431517039039.00     
  0.10000000000000001        4.8644849249999993        768709632423995.00     
   5.0000000000000003E-002   4.9265600949999993        526683641272267.31     
   0.0000000000000000        4.9895850149999994        663883834461501.25     
  0.10000000000000001        4.9895850050000004        643015795242623.75     
   5.0000000000000003E-002   5.0526099250000005        439613463048025.31     
   0.0000000000000000        5.1166014000000004        562630234644673.00     
  0.10000000000000001        5.1166013950000000        542542152861034.38     
   5.0000000000000003E-002   5.1805928699999999        370558803194481.06     
   0.0000000000000000        5.2455671850000005        481536088095625.62     
  0.10000000000000001        5.2455671850000005        461274287525713.75     
   5.0000000000000003E-002   5.3105415000000002        315204474571606.94     
   0.0000000000000000        5.3765144449999998        415899349293330.06     
  0.10000000000000001        5.3765144400000002        394874665231805.50     
   5.0000000000000003E-002   5.4424873849999997        270313084703919.69     
   0.0000000000000000        5.5094742649999997        362148576318515.75     
  0.10000000000000001        5.5094742550000007        340106024514216.81     
   5.0000000000000003E-002   5.5764611350000006        233575850189844.66     
   0.0000000000000000        5.6444767999999996        317736312214466.19     
  0.10000000000000001        5.6444767900000006        294578232378067.06     
   5.0000000000000003E-002   5.7124924549999996        203227612194387.97     
   0.0000000000000000        5.7815513149999997        280693324050568.72     
  0.10000000000000001        5.7815513049999998        256464169133968.28     
   5.0000000000000003E-002   5.8506101650000000        177910883296623.81     
   0.0000000000000000        5.9207262150000002        249488149984314.47     
  0.10000000000000001        5.9207262049999994        224355013925791.22     
   5.0000000000000003E-002   5.9908422550000004        156638837768330.12     
   0.0000000000000000        6.0620290899999993        223012446312232.16     
  0.10000000000000001        6.0620290849999998        197185437788650.31     
   5.0000000000000003E-002   6.1332159199999996        138624061224484.88     
   0.0000000000000000        6.2055392200000004        200514991343136.59     
  0.10000000000000001        6.2055392200000004        174179051964506.22     
   5.0000000000000003E-002   6.2778625200000002        123281429260983.08     
   0.0000000000000000        6.3513351100000000        181156118134123.56     
  0.10000000000000001        6.3513351100000000        154483979664327.41     
   5.0000000000000003E-002   6.4248076999999997        110190498848066.28     
   0.0000000000000000        6.4994017849999999        164391188745301.59     
  0.10000000000000001        6.4994017799999995        137560504132155.20     
   5.0000000000000003E-002   6.5739958650000005        98959133871091.297     
   0.0000000000000000        6.6497232700000000        149878358286192.59     
  0.10000000000000001        6.6497232600000000        123050568866106.02     
   5.0000000000000003E-002   6.7254506650000003        89255555396214.906     
   0.0000000000000000        6.8023229100000000        137225489515022.09     
  0.10000000000000001        6.8023229050000005        110579018847166.62     
   5.0000000000000003E-002   6.8791951500000001        80835529417931.047     
   0.0000000000000000        6.9572234499999999        126149178801622.52     
  0.10000000000000001        6.9572234499999999        99889943685745.266     
   5.0000000000000003E-002   7.0352517499999996        73552959643909.906     
   0.0000000000000000        7.1144739349999995        116540523524147.78     
  0.10000000000000001        7.1144739299999999        90886123804972.219     
   5.0000000000000003E-002   7.1936961149999998        67148378448667.562     
   0.0000000000000000        7.2742526949999995        108184867692568.45     
  0.10000000000000001        7.2742526850000004        83265387083998.219     
   5.0000000000000003E-002   7.3548092650000001        61292817442661.367     
   0.0000000000000000        7.4365640099999997        100219567077844.44     
  0.10000000000000001        7.4365640049999993        76324049726965.594     
   5.0000000000000003E-002   7.5183187499999997        56145271825525.352     
   0.0000000000000000        7.6012815499999995        93159379148134.141     
  0.10000000000000001        7.6012815450000000        70342167479653.438     
   5.0000000000000003E-002   7.6842443449999998        51693010317017.320     
   0.0000000000000000        7.7684644100000000        87071768609595.719     
  0.10000000000000001        7.7684644000000000        65394416867434.672     
   5.0000000000000003E-002   7.8526844649999994        47798577806859.141     
   0.0000000000000000        7.9383240050000001        81868959540814.609     
  0.10000000000000001        7.9383239949999993        61334207692838.766     
   5.0000000000000003E-002   8.0239635350000000        44265268330383.508     
   0.0000000000000000        8.1108483699999994        76919606275794.516     
  0.10000000000000001        8.1108483649999989        57794390445170.586     
   5.0000000000000003E-002   8.1977332000000001        40937282264900.102     
   0.0000000000000000        8.2858880100000007        72176366799572.594     
  0.10000000000000001        8.2858880050000003        54778328677784.633     
   5.0000000000000003E-002   8.3740428149999993        37646682698467.695     
   0.0000000000000000        8.4637110100000008        67514197941518.125     
  0.10000000000000001        8.4637110000000000        52156032064734.812     
   5.0000000000000003E-002   8.5533791949999998        34231548510615.840     
   0.0000000000000000        8.6443266200000011        62265420392906.742     
  0.10000000000000001        8.6443266100000002        49625806700183.906     
   5.0000000000000003E-002   8.7352740349999998        30657607713916.527     
   0.0000000000000000        8.8276352249999999        56631459554448.938     
  0.10000000000000001        8.8276352199999994        47356410241392.648     
   5.0000000000000003E-002   8.9199964099999995        26891592555917.246     
   0.0000000000000000        9.0138245300000008        50463751466554.414     
  0.10000000000000001        9.0138245300000008        45224043594874.352     
   5.0000000000000003E-002   9.1076526500000003        22963091120874.910     
   0.0000000000000000        9.2028306549999996        43711624030361.836     
  0.10000000000000001        9.2028306549999996        43163547711056.852     
   5.0000000000000003E-002   9.2980086600000007        21336025401549.934     
   0.0000000000000000        9.3947851150000012        36702614523788.055     
  0.10000000000000001        9.3947851100000008        41296495909436.211     
   5.0000000000000003E-002   9.4915615649999996        20077425956864.625     
   0.0000000000000000        9.5896830699999995        29296243795276.156     
  0.10000000000000001        9.5896830649999991        39400545028272.570     
   5.0000000000000003E-002   9.6878045700000008        18895847633918.035     
   0.0000000000000000        9.7870744450000000        21853297183522.703     
  0.10000000000000001        9.7870744400000014        37515766763176.883     
   5.0000000000000003E-002   9.8863443149999988        17777742489319.676     
   0.0000000000000000        9.9857764099999997        14338980681485.107     
  0.10000000000000001        9.9857764049999993        35353563601671.250     
   5.0000000000000003E-002   10.085208500000000        16715461918322.910     
   0.0000000000000000        10.184640650000000        8108956455765.5654     
  0.10000000000000001        10.184640650000000        33241086335639.480     
   5.0000000000000003E-002   10.284072800000001        15721897249576.988     
   0.0000000000000000        10.383504900000000        10792031341436.271     
  0.10000000000000001        10.383504900000000        31265225190193.148     
   5.0000000000000003E-002   10.482937000000000        14798976298088.438     
   0.0000000000000000        10.582369150000000        16088337173442.334     
  0.10000000000000001        10.582369150000000        29429880622359.531     
   5.0000000000000003E-002   10.681801300000000        13932880129740.309     
   0.0000000000000000        10.781233400000000        21272092787283.250     
  0.10000000000000001        10.781233400000000        27707510606966.906     
   5.0000000000000003E-002   10.880665499999999        13113606044469.680     
   0.0000000000000000        10.980097649999999        26195438704406.773     
  0.10000000000000001        10.980097649999999        26078280865092.355     
   5.0000000000000003E-002   11.079529800000000        13172519504208.012     
   0.0000000000000000        11.178961900000001        30924005349544.395     
  0.10000000000000001        11.178961900000001        24516972121152.730     
   5.0000000000000003E-002   11.278394000000000        15550312901741.113     
   0.0000000000000000        11.377826100000000        35583830424954.211     
  0.10000000000000001        11.377826100000000        22996667683279.676     
   5.0000000000000003E-002   11.477258200000000        17893532584021.840     
   0.0000000000000000        11.576690350000000        40322717046521.539     
  0.10000000000000001        11.576690350000000        21491766063768.453     
   5.0000000000000003E-002   11.676122500000000        20276498620678.262     
   0.0000000000000000        11.775554600000000        45282113008368.648     
  0.10000000000000001        11.775554600000000        19982096724731.930     
   5.0000000000000003E-002   11.874986699999999        22770369432189.828     
   0.0000000000000000        11.974418849999999        50594516620573.117     
  0.10000000000000001        11.974418849999999        18461568663729.332     
   5.0000000000000003E-002   12.073850999999999        25441729169374.812     
   0.0000000000000000        12.173283099999999        56394759573743.445     
  0.10000000000000001        12.173283099999999        16948699102808.684     
   5.0000000000000003E-002   12.272715200000000        28358427295482.641     
   0.0000000000000000        12.372147300000000        62831359184941.805     
  0.10000000000000001        12.372147300000000        15500411583723.863     
   5.0000000000000003E-002   12.471579400000000        31595108212007.027     
   0.0000000000000000        12.571011550000000        70074249966565.320     
  0.10000000000000001        12.571011550000000        14230714458228.693     
   5.0000000000000003E-002   12.670443700000000        35237219534408.742     
   0.0000000000000000        12.769875800000001        78319571431270.469     
  0.10000000000000001        12.769875800000001        13330917913195.646     
   5.0000000000000003E-002   12.869307900000001        39383444295790.852     
   0.0000000000000000        12.968740000000000        87768567744201.766     
  0.10000000000000001        12.968740000000000        13661211366388.877     
   5.0000000000000003E-002   13.068172100000000        44134926117522.477     
   0.0000000000000000        13.167604250000000        98606681123461.281     
  0.10000000000000001        13.167604250000000        15219608103152.275     
   5.0000000000000003E-002   13.267036400000000        49584908464445.914     
   0.0000000000000000        13.366468500000000        110954241200961.84     
  0.10000000000000001        13.366468500000000        17594842705809.711     
   5.0000000000000003E-002   13.465900599999999        55793974582133.094     
   0.0000000000000000        13.565332750000000        124928222851647.94     
  0.10000000000000001        13.565332750000000        20543115868406.246     
   5.0000000000000003E-002   13.664764900000000        62820839563283.977     
   0.0000000000000000        13.764196999999999        141013136412903.91     
  0.10000000000000001        13.764196999999999        23757721035669.086     
   5.0000000000000003E-002   13.863629100000001        70909261904809.031     
   0.0000000000000000        13.963061249999999        160655593928848.06     
  0.10000000000000001        13.963061249999999        27360005885753.258     
   5.0000000000000003E-002   14.062493399999999        80786543350842.375     
   0.0000000000000000        14.161925499999999        187361052267328.28     
  0.10000000000000001        14.161925499999999        32007926944988.664     
   5.0000000000000003E-002   14.261357600000000        94215576391993.844     
   0.0000000000000000        14.360789700000000        211770445717732.97     
  0.10000000000000001        14.360789700000000        33386283476383.879     
   5.0000000000000003E-002   14.460221799999999        106489979452175.84     
   0.0000000000000000        14.559653950000000        211770552207713.66     
  0.10000000000000001        14.559653950000000        44127124776667.273     
   5.0000000000000003E-002   14.659086100000000        100436560926512.59     
   0.0000000000000000        14.758518200000001        219091644728835.06     
  0.10000000000000001        14.758518200000001        66570184744262.328     
   5.0000000000000003E-002   14.857950300000001        110171486234744.12     
   0.0000000000000000        14.957382450000001        219091754900318.66     
  0.10000000000000001        14.957382450000001        116419757564631.86     
   5.0000000000000003E-002   15.056814599999999        104455417558507.16     
   0.0000000000000000        15.156246700000001        677148695892238.88     
  0.10000000000000001        15.156246700000001        331405248892082.50     
   5.0000000000000003E-002   15.255678800000000        340508093408585.25     
   0.0000000000000000        15.355110900000000        1731339702451817.0     
  0.10000000000000001        15.355110900000000        772116539443586.50     
   5.0000000000000003E-002   15.454542999999999        870614068521043.25     
   0.0000000000000000        15.553975149999999        4581305047405981.0     
  0.10000000000000001        15.553975149999999        1951507416945722.0     
   5.0000000000000003E-002   15.653407300000000        2303734278805182.0     
   0.0000000000000000        15.752839399999999        10994734769700992.     
  0.10000000000000001        15.752839399999999        4095179849084044.0     
   5.0000000000000003E-002   15.852271500000001        5528765242663556.0     
   0.0000000000000000        15.951703650000001        24231744134644076.     
  0.10000000000000001        15.951703650000001        8843114328910532.0     
   5.0000000000000003E-002   16.051135800000001        12185064958689940.     
   0.0000000000000000        16.150567899999999        36063416456863560.     
  0.10000000000000001        16.150567899999999        8843109882102114.0     
   5.0000000000000003E-002   16.250000000000000        18134695162258324.     
  -7.9982510799999993        8.2146203500000001E-002   18704868195631112.     
  -8.0999999999999996       0.10000000000000001        14303618285830504.     
  -7.9982510799999993       0.18214620349999999        10555226338834168.     
  -8.0234046100000000       0.25515049200000001        4125666621568776.0     
  -8.0999999999999996       0.30000000000000004        5553384367109147.0     
  -8.0234046100000000       0.35515049200000004        4929182255276887.0     
  -8.0028600999999995       0.43735979300000005        6638495192858968.0     
  -8.0999999999999996       0.50000000000000000        5956406449946188.0     
  -8.0028600999999995       0.53735979300000003        7372580894399564.0     
  -7.9926397250000001       0.64075689199999997        9381823924742332.0     
  -8.0999999999999996       0.69999999999999996        8137410046521144.0     
  -7.9926397250000001       0.74075689200000006        10017843760754100.     
  -7.9897178699999998       0.84583154550000006        11731310265417370.     
  -8.0999999999999996       0.90000000000000002        10091511784482756.     
  -7.9897178699999998       0.94583154549999993        12399166519170504.     
  -7.9894936599999999        1.0493400899999998        14041028199796796.     
  -8.0999999999999996        1.1000000000000001        11900467931218502.     
  -7.9894936599999999        1.1493400899999999        14466817759326646.     
  -7.9906589349999999        1.2517567399999998        16014053185496442.     
  -8.0999999999999996        1.2999999999999998        13595856051757272.     
  -7.9906589349999999        1.3517567399999999        16248544384786092.     
  -7.9925850949999999        1.4534557399999999        17738415686973462.     
  -8.0999999999999996        1.5000000000000000        15087664461792672.     
  -7.9925850949999999        1.5534557400000000        17662448980138448.     
  -7.9952245650000000        1.6546870550000001        19079721693227328.     
  -8.0999999999999996        1.7000000000000002        16404009201519514.     
  -7.9952245650000000        1.7546870550000000        18725846349960584.     
  -7.9984882250000000        1.8554030350000001        20018374939659084.     
  -8.0999999999999996        1.8999999999999999        17507618420859372.     
  -7.9984882250000000        1.9554030350000000        19411780455806076.     
  -8.0020817350000009        2.0554830300000000        20521240593166328.     
  -8.0999999999999996        2.1000000000000001        18371974166344272.     
  -8.0020817350000009        2.1554830300000001        19761402394212228.     
  -8.0055539749999998        2.3549299000000001        19892795957213144.     
  -8.0055539749999998        2.2549299000000000        20702228867583120.     
  -8.0999999999999996        2.2999999999999998        19009105900014296.     
  -8.0084930599999993        2.5539264099999999        19911536012468780.     
  -8.0084930599999993        2.4539264100000002        20642944949809348.     
  -8.0999999999999996        2.5000000000000000        19415892172894012.     
  -8.0106683699999994        2.7527593100000001        19905463018269824.     
  -8.0106683699999994        2.6527593100000000        20436246605062536.     
  -8.0999999999999996        2.7000000000000002        19585874666533764.     
  -8.0120657550000001        2.9516991600000000        19799650683653672.     
  -8.0120657550000001        2.8516991599999999        20131117844869568.     
  -8.0999999999999996        2.8999999999999999        19585874666533808.     
  -8.0128339749999995        3.1509084150000000        19560489817966040.     
  -8.0128339749999995        3.0509084150000003        19737241406206992.     
  -8.0999999999999996        3.1000000000000001        19529940545983940.     
  -8.0131842750000004        3.3504198199999999        19146518133874012.     
  -8.0131842750000004        3.2504198200000003        19330087608880084.     
  -8.0999999999999996        3.2999999999999998        19254060601646080.     
  -8.0133023449999996        3.5501805050000002        18533558065530176.     
  -8.0133023449999996        3.4501805050000001        18787699457586816.     
  -8.0999999999999996        3.5000000000000000        18755312179602096.     
  -8.0133136950000008        3.7501156249999998        17727827282776520.     
  -8.0133136950000008        3.6501156249999998        18074110038528744.     
  -8.0999999999999996        3.7000000000000002        18050577187957520.     
  -8.0132969200000002        3.9501653800000001        16744140146206752.     
  -8.0132969200000002        3.8501653800000000        17192061397001470.     
  -8.0999999999999996        3.8999999999999999        17162918247809840.     
  -8.0133097049999993        4.1502864099999996        15617324417283108.     
  -8.0133097049999993        4.0502864100000000        16153620106232500.     
  -8.0999999999999996        4.0999999999999996        16118254932813966.     
  -8.0133982400000008        4.2504442600000001        14985117964598234.     
  -8.0999999999999996        4.3000000000000007        14951895725635478.     
  -8.0133982400000008        4.3504442599999997        14382630199427668.     
  -8.0135903299999995        4.5506258499999994        13086270292553344.     
  -8.0135903299999995        4.4506258499999998        13729816005868094.     
  -8.0999999999999996        4.5000000000000000        13709535575827656.     
  -8.0999999999999996        4.6999999999999993        12458183491087718.     
  -8.0139049450000002        4.7508599999999994        11782905372501302.     
  -8.0139049450000002        4.6508599999999998        12457621673802898.     
  -8.0999999999999996        4.9000000000000004        11277140106693880.     
  -8.0144083349999988        4.9511766650000002        10495918658949464.     
  -8.0144083349999988        4.8511766650000006        11246076254749260.     
  -8.0152515799999993        5.0514326199999999        9990696864729900.0     
  -8.0999999999999996        5.0999999999999996        10077941781551132.     
  -8.0152515799999993        5.1514326199999996        9167823485946126.0     
  -8.0162176599999988        5.2514300199999999        8518631146584000.0     
  -8.0999999999999996        5.3000000000000007        8665218172552152.0     
  -8.0162176599999988        5.3514300200000005        7779940578212844.0     
  -8.0163659200000001        5.5522485599999998        6666425788807599.0     
  -8.0163659200000001        5.4522485600000001        7293021486481979.0     
  -8.0999999999999996        5.5000000000000000        7395580340331508.0     
  -8.0226142300000003        5.7511106749999996        8964517391082637.0     
  -8.0226142300000003        5.6511106750000000        5830589668778125.0     
  -8.0999999999999996        5.6999999999999993        9793501287079106.0     
  -8.0361684999999987        5.8320961499999999        6997128204099353.0     
  -8.0999999999999996        5.9000000000000004        13246509388591526.     
  -8.0361684999999987        5.9320961499999996        12345144983727310.     
  -7.9366129099999991        5.9283993000000006        6535699148457095.0     
  -8.0004444100000001        5.9963031500000001        13196729654200388.     
  -7.8583589450000000        5.9094892850000003        5385959956733317.0     
  -7.8014009150000003        5.9875037850000004        5746648507732225.0     
  -7.7588710400000007        5.9043867700000003        4767210521980459.0     
  -7.6630325050000003        5.8904676250000003        5789893108884723.0     
  -7.6025844500000002        5.9746051900000001        5916680869573773.0     
  -7.5637039450000003        5.8826715450000000        6152235350053052.0     
  -7.4663815150000001        5.8729112600000004        6715640539840558.0     
  -7.4042681449999996        5.9554725699999995        6900617143327819.0     
  -7.3673937699999996        5.8615747200000001        7155656737064243.0     
  -7.2068599600000001        5.9285559049999996        7569812544410808.0     
  -7.1742207249999996        5.8323727349999999        7903501641416722.0     
  -7.2726411649999996        5.8479528599999995        7441754624579326.0     
  -7.0108965150000007        5.8925902600000004        8217203614810118.0     
  -6.9837298299999997        5.7939289899999995        8679869463620163.0     
  -7.0812728350000000        5.8143145100000000        8205579585202379.0     
  -6.7962506400000002        5.7449810449999994        9707951161763998.0     
  -6.8925343200000002        5.7707302100000000        9140588528270078.0     
  -6.8170698300000003        5.8464555750000002        9050485691401176.0     
  -6.6124263750000001        5.6846017149999994        11053649212498724.     
  -6.7068962800000005        5.7163604100000001        10359661480767512.     
  -6.6263162449999999        5.7889477149999999        10157997578502726.     
  -6.4333551250000003        5.6120865250000005        12659719092200008.     
  -6.5253698849999999        5.6504512400000007        11905129545934798.     
  -6.4398315799999999        5.7188243050000001        11525134185321250.     
  -6.2604874600000002        5.5267423200000003        14682237319751730.     
  -6.3492517749999999        5.5721118450000002        13899372046285450.     
  -6.2590525049999997        5.6350900650000000        13304520530176072.     
  -6.1799054000000000        5.4806403850000001        16537850051806528.     
  -6.0855637799999993        5.5371526250000001        15852612964546116.     
  -6.0951809899999994        5.4280724700000000        17484651932522172.     
  -5.9385230500000006        5.3162383599999998        21330787847094004.     
  -6.0185092749999995        5.3757480150000001        20032223419637404.     
  -5.9208531449999997        5.4250750550000006        19437377542045784.     
  -5.7660930849999996        5.2996349350000003        24472180680554940.     
  -5.7911609850000003        5.1919092649999996        26570472099238540.     
  -5.8659348199999997        5.2578397300000006        24786928411089892.     
  -5.7223606900000004        5.1275607850000000        31373702623758768.     
  -5.6217321250000003        5.1623280700000000        31218957659960020.     
  -5.6527735650000004        5.0561843849999999        33342639423677684.     
  -5.5859712600000000        4.9846683350000003        40179974028266968.     
  -5.4873718799999995        5.0152259600000004        39848154791496720.     
  -5.5211981399999992        4.9089426249999999        41278506829129760.     
  -5.4488723050000001        4.8234289550000007        55916133483814792.     
  -5.3616749150000000        4.8606414099999995        53260631166930872.     
  -5.3879484599999996        4.7445701150000001        50670762907451248.     
  -5.3196169649999998        4.7308222549999996        33941043888215100.     
  -5.2712728999999996        4.7414133150000000        34964704726327104.     
  -5.2901387949999998        4.6904529999999998        34617904588981036.     
  -5.3628007750000002        4.6393005049999996        29539007483299900.     
  -5.3109971549999999        4.6429940350000001        32823825344274984.     
  -5.3353150700000000        4.6024326000000002        37070234616273048.     