TITLE = "Visualization of the solution"
VARIABLES = "x","y","Density","Momentum_x","Momentum_y","Energy","Pressure","Temperature","Mach","Pressure_Coefficient"
ZONE NODES= 16792, ELEMENTS= 32807, DATAPACKING=POINT, ZONETYPE=FEQUADRILATERAL
0.000000e+00	3.250000e+00	1.241032e+00	-3.778736e-01	-1.168866e+01	9.147381e+01	1.454858e+01	1.172297e+01	2.326086e+00	1.935511e+19	
0.000000e+00	3.350426e+00	2.488089e+00	-5.539007e-02	-1.579808e+01	1.697742e+02	4.784751e+01	1.923063e+01	1.223715e+00	6.692502e+19	
0.000000e+00	3.452244e+00	2.406159e+00	-7.857677e-02	-1.593899e+01	1.659398e+02	4.525864e+01	1.880950e+01	1.290889e+00	6.322663e+19	
0.000000e+00	3.555504e+00	2.472089e+00	-1.065840e-01	-1.621798e+01	1.703979e+02	4.687883e+01	1.896324e+01	1.273273e+00	6.554119e+19	
0.000000e+00	3.660256e+00	2.530135e+00	-5.806144e-02	-1.669066e+01	1.754672e+02	4.816580e+01	1.903685e+01	1.277823e+00	6.737971e+19	
0.000000e+00	3.766709e+00	2.594996e+00	-3.939778e-02	-1.717796e+01	1.808128e+02	4.958258e+01	1.910700e+01	1.279900e+00	6.940369e+19	
0.000000e+00	3.875010e+00	2.662373e+00	-3.246100e-02	-1.767451e+01	1.863521e+02	5.107385e+01	1.918358e+01	1.281003e+00	7.153407e+19	
0.000000e+00	3.984897e+00	2.732747e+00	-3.180424e-02	-1.816608e+01	1.920410e+02	5.266435e+01	1.927158e+01	1.279793e+00	7.380622e+19	
0.000000e+00	4.096413e+00	2.826460e+00	-2.806133e-02	-1.867085e+01	1.989465e+02	5.491163e+01	1.942771e+01	1.266621e+00	7.701662e+19	
0.000000e+00	4.209602e+00	2.940569e+00	-6.209309e-03	-1.925212e+01	2.072465e+02	5.768959e+01	1.961851e+01	1.249253e+00	8.098512e+19	
0.000000e+00	4.324505e+00	3.076246e+00	2.971692e-02	-1.986229e+01	2.168875e+02	6.110610e+01	1.986385e+01	1.224371e+00	8.586585e+19	
0.000000e+00	4.441161e+00	3.236075e+00	8.252762e-02	-2.052405e+01	2.280776e+02	6.519681e+01	2.014688e+01	1.194208e+00	9.170973e+19	
0.000000e+00	4.559667e+00	3.425030e+00	1.475442e-01	-2.122302e+01	2.410946e+02	7.013508e+01	2.047722e+01	1.157321e+00	9.876440e+19	
0.000000e+00	4.680124e+00	3.650205e+00	2.282875e-01	-2.195350e+01	2.563534e+02	7.613143e+01	2.085675e+01	1.113070e+00	1.073306e+20	
0.000000e+00	4.802410e+00	3.915220e+00	3.222555e-01	-2.268713e+01	2.740579e+02	8.332528e+01	2.128240e+01	1.061678e+00	1.176075e+20	
0.000000e+00	4.926560e+00	4.222501e+00	4.199607e-01	-2.338522e+01	2.943660e+02	9.183544e+01	2.174907e+01	1.003824e+00	1.297649e+20	
0.000000e+00	5.052610e+00	4.584529e+00	5.151606e-01	-2.398190e+01	3.180152e+02	1.021044e+02	2.227151e+01	9.370230e-01	1.444348e+20	
0.000000e+00	5.180593e+00	5.028393e+00	5.628378e-01	-2.440302e+01	3.467548e+02	1.150035e+02	2.287083e+01	8.578768e-01	1.628622e+20	
0.000000e+00	5.310542e+00	5.540846e+00	5.313843e-01	-2.472418e+01	3.796973e+02	1.298040e+02	2.342675e+01	7.793384e-01	1.840057e+20	
0.000000e+00	5.442487e+00	6.114514e+00	3.264621e-01	-2.456940e+01	4.161947e+02	1.467294e+02	2.399690e+01	6.933130e-01	2.081848e+20	
0.000000e+00	5.576461e+00	6.749506e+00	-9.390589e-02	-2.382276e+01	4.566731e+02	1.658522e+02	2.457249e+01	6.017760e-01	2.355032e+20	
0.000000e+00	5.712492e+00	7.388501e+00	-7.141744e-01	-2.213664e+01	4.976842e+02	1.857952e+02	2.514654e+01	5.052172e-01	2.639931e+20	
0.000000e+00	5.850610e+00	7.960462e+00	-1.504508e+00	-1.928947e+01	5.350879e+02	2.046300e+02	2.570579e+01	4.051535e-01	2.909000e+20	
0.000000e+00	5.990842e+00	8.424161e+00	-2.290260e+00	-1.543756e+01	5.654250e+02	2.203875e+02	2.616136e+01	3.061155e-01	3.134107e+20	
0.000000e+00	6.133216e+00	8.708539e+00	-2.890900e+00	-1.119192e+01	5.839870e+02	2.305262e+02	2.647128e+01	2.180384e-01	3.278946e+20	
0.000000e+00	6.277863e+00	8.858491e+00	-3.026363e+00	-7.073224e+00	5.956295e+02	2.369155e+02	2.674445e+01	1.419323e-01	3.370221e+20	
0.000000e+00	6.424808e+00	8.878908e+00	-3.014169e+00	-3.481657e+00	5.980522e+02	2.387432e+02	2.688880e+01	8.453410e-02	3.396331e+20	
0.000000e+00	6.573996e+00	8.851246e+00	-2.739444e+00	-4.278948e-01	5.970281e+02	2.386376e+02	2.696090e+01	5.098720e-02	3.394822e+20	
0.000000e+00	6.725451e+00	8.817512e+00	-2.630297e+00	2.368331e+00	5.946831e+02	2.375891e+02	2.694514e+01	6.535534e-02	3.379844e+20	
0.000000e+00	6.879195e+00	8.769814e+00	-2.589090e+00	5.201997e+00	5.907685e+02	2.355374e+02	2.685774e+01	1.080535e-01	3.350534e+20	
0.000000e+00	7.035252e+00	8.660527e+00	-2.593717e+00	8.116333e+00	5.828182e+02	2.314507e+02	2.672478e+01	1.608457e-01	3.292152e+20	
0.000000e+00	7.193696e+00	8.503140e+00	-2.512969e+00	1.100389e+01	5.716172e+02	2.256503e+02	2.653729e+01	2.177781e-01	3.209290e+20	
0.000000e+00	7.354809e+00	8.298231e+00	-2.310550e+00	1.369232e+01	5.550037e+02	2.173542e+02	2.619284e+01	2.763333e-01	3.090775e+20	
0.000000e+00	7.518319e+00	8.009875e+00	-1.956282e+00	1.581900e+01	5.341375e+02	2.073111e+02	2.588194e+01	3.305876e-01	2.947302e+20	
0.000000e+00	7.684244e+00	7.674283e+00	-1.553305e+00	1.739957e+01	5.107114e+02	1.963318e+02	2.558309e+01	3.803504e-01	2.790455e+20	
0.000000e+00	7.852684e+00	7.330839e+00	-1.090330e+00	1.849064e+01	4.871887e+02	1.855152e+02	2.530614e+01	4.244975e-01	2.635932e+20	
0.000000e+00	8.023964e+00	6.964808e+00	-7.127188e-01	1.907601e+01	4.626720e+02	1.746047e+02	2.506957e+01	4.626407e-01	2.480067e+20	
0.000000e+00	8.197733e+00	6.629771e+00	-3.266725e-01	1.938182e+01	4.400056e+02	1.646666e+02	2.483746e+01	4.958385e-01	2.338095e+20	
0.000000e+00	8.374043e+00	6.328489e+00	-3.674700e-02	1.956451e+01	4.181432e+02	1.551605e+02	2.451778e+01	5.276732e-01	2.202293e+20	
0.000000e+00	8.553379e+00	6.046750e+00	1.985650e-01	1.950914e+01	3.973974e+02	1.463689e+02	2.420621e+01	5.542571e-01	2.076698e+20	
0.000000e+00	8.735274e+00	5.761124e+00	3.554166e-01	1.919790e+01	3.770033e+02	1.380023e+02	2.395405e+01	5.755293e-01	1.957175e+20	
0.000000e+00	8.919996e+00	5.497441e+00	5.065306e-01	1.902714e+01	3.582303e+02	1.301118e+02	2.366771e+01	6.014848e-01	1.844455e+20	
0.000000e+00	9.107653e+00	5.254943e+00	6.372810e-01	1.884237e+01	3.406075e+02	1.227151e+02	2.335232e+01	6.274610e-01	1.738787e+20	
0.000000e+00	9.298009e+00	5.011380e+00	7.611430e-01	1.858236e+01	3.230311e+02	1.154085e+02	2.302929e+01	6.535869e-01	1.634407e+20	
0.000000e+00	9.491562e+00	4.756523e+00	8.752157e-01	1.817947e+01	3.050157e+02	1.080777e+02	2.272199e+01	6.784333e-01	1.529681e+20	
0.000000e+00	9.687805e+00	4.488041e+00	9.703197e-01	1.758761e+01	2.862972e+02	1.006926e+02	2.243575e+01	7.002862e-01	1.424180e+20	
0.000000e+00	9.886344e+00	4.214052e+00	1.035794e+00	1.682931e+01	2.671618e+02	9.337181e+01	2.215725e+01	7.183987e-01	1.319597e+20	
0.000000e+00	1.008521e+01	3.947149e+00	1.055744e+00	1.601344e+01	2.483163e+02	8.627684e+01	2.185801e+01	7.349767e-01	1.218241e+20	
0.000000e+00	1.028407e+01	3.670684e+00	9.563822e-01	1.504196e+01	2.280559e+02	7.884456e+01	2.147953e+01	7.487848e-01	1.112065e+20	
0.000000e+00	1.048294e+01	3.404499e+00	9.604991e-01	1.393551e+01	2.091350e+02	7.219146e+01	2.120472e+01	7.530405e-01	1.017021e+20	
0.000000e+00	1.068180e+01	3.159563e+00	8.799342e-01	1.309288e+01	1.910080e+02	6.550309e+01	2.073169e+01	7.709127e-01	9.214728e+19	
0.000000e+00	1.088067e+01	2.919454e+00	7.892002e-01	1.228486e+01	1.735361e+02	5.903300e+01	2.022056e+01	7.925057e-01	8.290429e+19	
0.000000e+00	1.107953e+01	2.682494e+00	6.859799e-01	1.150685e+01	1.568200e+02	5.282094e+01	1.969098e+01	8.184466e-01	7.402991e+19	
0.000000e+00	1.127839e+01	2.459922e+00	5.787353e-01	1.080458e+01	1.414314e+02	4.705405e+01	1.912827e+01	8.499762e-01	6.579149e+19	
0.000000e+00	1.147726e+01	2.258652e+00	4.856670e-01	1.015137e+01	1.275634e+02	4.187955e+01	1.854184e+01	8.831436e-01	5.839936e+19	
0.000000e+00	1.167612e+01	2.079826e+00	4.026326e-01	9.515897e+00	1.150976e+02	3.731576e+01	1.794177e+01	9.137229e-01	5.187966e+19	
0.000000e+00	1.187499e+01	1.925255e+00	3.329217e-01	8.900077e+00	1.040288e+02	3.337134e+01	1.733346e+01	9.390797e-01	4.624476e+19	
0.000000e+00	1.207385e+01	1.788962e+00	2.833315e-01	8.330383e+00	9.424313e+01	2.993012e+01	1.673044e+01	9.627140e-01	4.132874e+19	
0.000000e+00	1.227272e+01	1.665949e+00	2.597242e-01	7.813747e+00	8.566406e+01	2.692782e+01	1.616365e+01	9.865149e-01	3.703974e+19	
0.000000e+00	1.247158e+01	1.551440e+00	2.425235e-01	7.360105e+00	7.799785e+01	2.420822e+01	1.560371e+01	1.015563e+00	3.315460e+19	
0.000000e+00	1.267044e+01	1.444718e+00	2.418868e-01	6.921347e+00	7.094011e+01	2.173619e+01	1.504529e+01	1.044500e+00	2.962313e+19	
0.000000e+00	1.286931e+01	1.358754e+00	2.020117e-01	6.549983e+00	6.514034e+01	1.973518e+01	1.452447e+01	1.069527e+00	2.676455e+19	
0.000000e+00	1.306817e+01	1.266164e+00	1.885856e-01	6.167135e+00	5.947072e+01	1.777499e+01	1.403845e+01	1.099190e+00	2.396427e+19	
0.000000e+00	1.326704e+01	1.176921e+00	1.776690e-01	5.822915e+00	5.434008e+01	1.596880e+01	1.356828e+01	1.135713e+00	2.138400e+19	
0.000000e+00	1.346590e+01	1.098684e+00	1.584755e-01	5.514413e+00	5.000122e+01	1.446043e+01	1.316159e+01	1.169735e+00	1.922919e+19	
0.000000e+00	1.366476e+01	1.029930e+00	1.374759e-01	5.230934e+00	4.633910e+01	1.321847e+01	1.283434e+01	1.198591e+00	1.745495e+19	
0.000000e+00	1.386363e+01	9.690174e-01	1.208248e-01	4.974185e+00	4.323697e+01	1.218505e+01	1.257465e+01	1.223789e+00	1.597865e+19	
0.000000e+00	1.406249e+01	9.134050e-01	1.045669e-01	4.756310e+00	4.060824e+01	1.128746e+01	1.235756e+01	1.252222e+00	1.469637e+19	
0.000000e+00	1.426136e+01	8.884471e-01	1.549022e-01	4.610225e+00	4.014180e+01	1.126675e+01	1.268140e+01	1.232219e+00	1.466679e+19	
0.000000e+00	1.446022e+01	8.160941e-01	1.642722e-01	4.350051e+00	3.650822e+01	9.959234e+00	1.220354e+01	1.290496e+00	1.279891e+19	
0.000000e+00	1.465909e+01	7.804233e-01	1.566520e-01	4.218270e+00	3.547104e+01	9.622088e+00	1.232932e+01	1.301877e+00	1.231727e+19	
0.000000e+00	1.485795e+01	7.193574e-01	1.530070e-01	3.988952e+00	3.251236e+01	8.574558e+00	1.191975e+01	1.358426e+00	1.082080e+19	
0.000000e+00	1.505681e+01	6.871382e-01	1.141175e-01	3.908260e+00	3.165327e+01	8.211690e+00	1.195057e+01	1.391125e+00	1.030241e+19	
0.000000e+00	1.525568e+01	6.291242e-01	6.727017e-02	3.692698e+00	2.897640e+01	7.254201e+00	1.153063e+01	1.461130e+00	8.934573e+18	
0.000000e+00	1.545454e+01	6.129287e-01	7.086264e-02	3.634137e+00	2.868172e+01	7.161594e+00	1.168422e+01	1.466256e+00	8.802278e+18	
0.000000e+00	1.565341e+01	5.653974e-01	5.460810e-02	3.444822e+00	2.643189e+01	6.374016e+00	1.127351e+01	1.533818e+00	7.677166e+18	
0.000000e+00	1.585227e+01	5.346534e-01	4.314192e-02	3.312457e+00	2.511091e+01	5.939187e+00	1.110848e+01	1.571171e+00	7.055981e+18	
0.000000e+00	1.605114e+01	5.109709e-01	2.501243e-02	3.215060e+00	2.415220e+01	5.614763e+00	1.098842e+01	1.604259e+00	6.592519e+18	
0.000000e+00	1.625000e+01	4.450965e-01	-2.370072e-02	2.903933e+00	2.111174e+01	4.655228e+00	1.045892e+01	1.705059e+00	5.221755e+18	
1.000000e-01	3.250000e+00	2.214348e+00	-8.957900e-01	-1.573491e+01	1.521987e+02	3.844492e+01	1.736173e+01	1.443645e+00	5.349274e+19	
1.000000e-01	3.350426e+00	2.628848e+00	9.796966e-01	-1.729552e+01	1.780171e+02	4.837593e+01	1.840195e+01	1.298279e+00	6.767990e+19	
1.000000e-01	3.452244e+00	2.549879e+00	5.732284e-01	-1.763914e+01	1.740880e+02	4.520517e+01	1.772836e+01	1.389277e+00	6.315024e+19	
1.000000e-01	3.555504e+00	2.632697e+00	7.397048e-01	-1.797754e+01	1.794702e+02	4.719436e+01	1.792624e+01	1.364231e+00	6.599195e+19	
1.000000e-01	3.660256e+00	2.688273e+00	7.684085e-01	-1.838017e+01	1.835747e+02	4.825228e+01	1.794917e+01	1.365115e+00	6.750325e+19	
1.000000e-01	3.766709e+00	2.746353e+00	8.053082e-01	-1.873866e+01	1.877327e+02	4.947469e+01	1.801469e+01	1.359895e+00	6.924955e+19	
1.000000e-01	3.875010e+00	2.813777e+00	8.244548e-01	-1.914494e+01	1.924862e+02	5.089371e+01	1.808733e+01	1.353367e+00	7.127672e+19	
1.000000e-01	3.984897e+00	2.893473e+00	8.486748e-01	-1.960441e+01	1.980134e+02	5.259009e+01	1.817542e+01	1.344419e+00	7.370012e+19	
1.000000e-01	4.096413e+00	2.999329e+00	9.129127e-01	-2.011273e+01	2.050291e+02	5.498191e+01	1.833140e+01	1.325049e+00	7.711701e+19	
1.000000e-01	4.209602e+00	3.124634e+00	9.776694e-01	-2.068651e+01	2.132077e+02	5.783106e+01	1.850811e+01	1.302050e+00	8.118722e+19	
1.000000e-01	4.324505e+00	3.273880e+00	1.054799e+00	-2.132180e+01	2.228087e+02	6.128300e+01	1.871877e+01	1.273765e+00	8.611857e+19	
1.000000e-01	4.441161e+00	3.447396e+00	1.139417e+00	-2.200053e+01	2.337547e+02	6.534603e+01	1.895519e+01	1.240497e+00	9.192290e+19	
1.000000e-01	4.559667e+00	3.654009e+00	1.226930e+00	-2.272397e+01	2.465351e+02	7.026797e+01	1.923038e+01	1.200297e+00	9.895424e+19	
1.000000e-01	4.680124e+00	3.900227e+00	1.309045e+00	-2.348619e+01	2.614872e+02	7.622141e+01	1.954281e+01	1.153025e+00	1.074592e+20	
1.000000e-01	4.802410e+00	4.191310e+00	1.368372e+00	-2.426398e+01	2.788012e+02	8.333776e+01	1.988346e+01	1.098985e+00	1.176254e+20	
1.000000e-01	4.926560e+00	4.533084e+00	1.374344e+00	-2.501830e+01	2.987135e+02	9.178665e+01	2.024817e+01	1.038153e+00	1.296952e+20	
1.000000e-01	5.052610e+00	4.937080e+00	1.290905e+00	-2.568752e+01	3.218322e+02	1.019351e+02	2.064683e+01	9.689672e-01	1.441929e+20	
1.000000e-01	5.180593e+00	5.429841e+00	1.117183e+00	-2.620797e+01	3.496407e+02	1.145110e+02	2.108919e+01	8.890915e-01	1.621585e+20	
1.000000e-01	5.310541e+00	5.999312e+00	7.118611e-01	-2.658087e+01	3.812006e+02	1.289092e+02	2.148733e+01	8.081058e-01	1.827274e+20	
1.000000e-01	5.442487e+00	6.630559e+00	-7.599837e-02	-2.638672e+01	4.158795e+02	1.453501e+02	2.192125e+01	7.183571e-01	2.062145e+20	
1.000000e-01	5.576461e+00	7.306539e+00	-1.318803e+00	-2.540068e+01	4.534070e+02	1.636545e+02	2.239836e+01	6.216503e-01	2.323635e+20	
1.000000e-01	5.712492e+00	7.958181e+00	-2.957943e+00	-2.326982e+01	4.914627e+02	1.827570e+02	2.296467e+01	5.198353e-01	2.596528e+20	
1.000000e-01	5.850610e+00	8.518966e+00	-4.611684e+00	-1.978376e+01	5.276203e+02	2.013600e+02	2.363667e+01	4.145288e-01	2.862285e+20	
1.000000e-01	5.990842e+00	9.005902e+00	-5.883284e+00	-1.540277e+01	5.583816e+02	2.173153e+02	2.413032e+01	3.149913e-01	3.090218e+20	
1.000000e-01	6.133216e+00	9.315125e+00	-6.502790e+00	-1.053655e+01	5.805215e+02	2.289171e+02	2.457477e+01	2.266109e-01	3.255958e+20	
1.000000e-01	6.277863e+00	9.404177e+00	-6.317386e+00	-5.964987e+00	5.889323e+02	2.339674e+02	2.487910e+01	1.565467e-01	3.328106e+20	
1.000000e-01	6.424808e+00	9.477660e+00	-5.930329e+00	-2.177321e+00	5.960224e+02	2.375668e+02	2.506598e+01	1.125203e-01	3.379526e+20	
1.000000e-01	6.573996e+00	9.458541e+00	-5.239038e+00	8.807054e-01	5.965650e+02	2.380292e+02	2.516553e+01	9.462624e-02	3.386132e+20	
1.000000e-01	6.725451e+00	9.421085e+00	-5.170747e+00	3.612520e+00	5.947232e+02	2.370446e+02	2.516108e+01	1.128082e-01	3.372066e+20	
1.000000e-01	6.879195e+00	9.358755e+00	-5.229721e+00	6.469220e+00	5.902627e+02	2.346262e+02	2.507024e+01	1.500356e-01	3.337518e+20	
1.000000e-01	7.035252e+00	9.247599e+00	-5.367884e+00	9.595173e+00	5.835600e+02	2.308096e+02	2.495887e+01	2.011289e-01	3.282995e+20	
1.000000e-01	7.193696e+00	9.068746e+00	-5.222537e+00	1.279317e+01	5.706101e+02	2.240331e+02	2.470387e+01	2.590925e-01	3.186187e+20	
1.000000e-01	7.354809e+00	8.867467e+00	-4.828699e+00	1.580072e+01	5.540281e+02	2.154544e+02	2.429717e+01	3.194649e-01	3.063634e+20	
1.000000e-01	7.518319e+00	8.573184e+00	-4.141860e+00	1.823509e+01	5.341496e+02	2.055024e+02	2.397038e+01	3.765198e-01	2.921464e+20	
1.000000e-01	7.684244e+00	8.243559e+00	-3.363566e+00	2.015248e+01	5.124870e+02	1.948672e+02	2.363873e+01	4.308283e-01	2.769532e+20	
1.000000e-01	7.852684e+00	7.897667e+00	-2.581852e+00	2.162289e+01	4.903842e+02	1.841447e+02	2.331634e+01	4.826082e-01	2.616353e+20	
1.000000e-01	8.023964e+00	7.519919e+00	-1.927669e+00	2.260697e+01	4.679009e+02	1.734690e+02	2.306793e+01	5.309261e-01	2.463842e+20	
1.000000e-01	8.197733e+00	7.194680e+00	-1.316871e+00	2.351867e+01	4.468098e+02	1.632997e+02	2.269728e+01	5.808045e-01	2.318567e+20	
1.000000e-01	8.374043e+00	6.882420e+00	-7.617471e-01	2.404258e+01	4.268692e+02	1.539331e+02	2.236613e+01	6.245948e-01	2.184758e+20	
1.000000e-01	8.553379e+00	6.576146e+00	-3.053014e-01	2.423850e+01	4.078193e+02	1.452571e+02	2.208849e+01	6.628599e-01	2.060816e+20	
1.000000e-01	8.735274e+00	6.280040e+00	2.173946e-02	2.420670e+01	3.896066e+02	1.371814e+02	2.184404e+01	6.970163e-01	1.945449e+20	
1.000000e-01	8.919996e+00	5.993940e+00	2.659853e-01	2.400062e+01	3.719089e+02	1.295408e+02	2.161196e+01	7.279902e-01	1.836297e+20	
1.000000e-01	9.107653e+00	5.713679e+00	4.814711e-01	2.366573e+01	3.544872e+02	1.221824e+02	2.138419e+01	7.571528e-01	1.731177e+20	
1.000000e-01	9.298009e+00	5.430543e+00	6.844919e-01	2.324470e+01	3.369623e+02	1.148685e+02	2.115231e+01	7.869116e-01	1.626693e+20	
1.000000e-01	9.491562e+00	5.136592e+00	8.814081e-01	2.268671e+01	3.188782e+02	1.074810e+02	2.092458e+01	8.166417e-01	1.521157e+20	
1.000000e-01	9.687805e+00	4.836508e+00	1.065766e+00	2.203160e+01	3.005083e+02	1.000844e+02	2.069352e+01	8.473064e-01	1.415491e+20	
1.000000e-01	9.886344e+00	4.536425e+00	1.223733e+00	2.128378e+01	2.820782e+02	9.279363e+01	2.045523e+01	8.781840e-01	1.311338e+20	
1.000000e-01	1.008521e+01	4.245365e+00	1.342307e+00	2.044924e+01	2.640840e+02	8.584856e+01	2.022172e+01	9.072412e-01	1.212122e+20	
1.000000e-01	1.028407e+01	3.964822e+00	1.393486e+00	1.949249e+01	2.468355e+02	7.946983e+01	2.004373e+01	9.304593e-01	1.120998e+20	
1.000000e-01	1.048294e+01	3.654405e+00	1.376543e+00	1.856424e+01	2.273579e+02	7.197835e+01	1.969632e+01	9.700506e-01	1.013976e+20	
1.000000e-01	1.068180e+01	3.372411e+00	1.302989e+00	1.753454e+01	2.094987e+02	6.546495e+01	1.941191e+01	1.000118e+00	9.209279e+19	
1.000000e-01	1.088067e+01	3.092638e+00	1.186829e+00	1.647301e+01	1.916089e+02	5.900370e+01	1.907876e+01	1.033306e+00	8.286243e+19	
1.000000e-01	1.107953e+01	2.819071e+00	1.060524e+00	1.542798e+01	1.741025e+02	5.267463e+01	1.868510e+01	1.072543e+00	7.382089e+19	
1.000000e-01	1.127839e+01	2.558038e+00	9.351603e-01	1.439870e+01	1.577916e+02	4.683877e+01	1.831042e+01	1.114082e+00	6.548395e+19	
1.000000e-01	1.147726e+01	2.318155e+00	8.290284e-01	1.340898e+01	1.429979e+02	4.162746e+01	1.795715e+01	1.155844e+00	5.803923e+19	
1.000000e-01	1.167612e+01	2.101546e+00	7.342969e-01	1.245361e+01	1.296850e+02	3.706284e+01	1.763598e+01	1.194665e+00	5.151834e+19	
1.000000e-01	1.187499e+01	1.911103e+00	6.597198e-01	1.154387e+01	1.178215e+02	3.313708e+01	1.733924e+01	1.227994e+00	4.591011e+19	
1.000000e-01	1.207385e+01	1.742950e+00	5.874662e-01	1.069752e+01	1.071818e+02	2.970171e+01	1.704106e+01	1.258461e+00	4.100244e+19	
1.000000e-01	1.227272e+01	1.594785e+00	5.227558e-01	9.945263e+00	9.772158e+01	2.665039e+01	1.671097e+01	1.291066e+00	3.664342e+19	
1.000000e-01	1.247158e+01	1.462380e+00	4.893831e-01	9.266835e+00	8.923547e+01	2.391698e+01	1.635484e+01	1.326138e+00	3.273855e+19	
1.000000e-01	1.267044e+01	1.336039e+00	4.565337e-01	8.603651e+00	8.121012e+01	2.137191e+01	1.599647e+01	1.362693e+00	2.910273e+19	
1.000000e-01	1.286931e+01	1.247655e+00	4.484855e-01	7.979748e+00	7.504598e+01	1.977878e+01	1.585276e+01	1.359762e+00	2.682683e+19	
1.000000e-01	1.306817e+01	1.143485e+00	4.080148e-01	7.384939e+00	6.829610e+01	1.775053e+01	1.552318e+01	1.387471e+00	2.392933e+19	
1.000000e-01	1.326704e+01	1.048654e+00	3.588996e-01	6.859380e+00	6.235717e+01	1.594468e+01	1.520491e+01	1.419680e+00	2.134955e+19	
1.000000e-01	1.346590e+01	9.677980e-01	3.138615e-01	6.407610e+00	5.737521e+01	1.444501e+01	1.492565e+01	1.450111e+00	1.920716e+19	
1.000000e-01	1.366476e+01	9.001432e-01	2.735506e-01	6.026035e+00	5.323102e+01	1.320749e+01	1.467265e+01	1.478593e+00	1.743927e+19	
1.000000e-01	1.386363e+01	8.420985e-01	2.369018e-01	5.697940e+00	4.969382e+01	1.215334e+01	1.443221e+01	1.506606e+00	1.593334e+19	
1.000000e-01	1.406249e+01	7.937817e-01	2.076187e-01	5.415306e+00	4.674482e+01	1.129825e+01	1.423345e+01	1.529403e+00	1.471179e+19	
1.000000e-01	1.426136e+01	7.296560e-01	2.254286e-01	5.077440e+00	4.294897e+01	1.009920e+01	1.384105e+01	1.582362e+00	1.299886e+19	
1.000000e-01	1.446022e+01	7.070620e-01	2.051230e-01	4.908560e+00	4.144939e+01	9.752624e+00	1.379317e+01	1.581173e+00	1.250375e+19	
1.000000e-01	1.465909e+01	6.560269e-01	2.125581e-01	4.634742e+00	3.841667e+01	8.804129e+00	1.342038e+01	1.631600e+00	1.114876e+19	
1.000000e-01	1.485795e+01	6.328387e-01	1.793985e-01	4.483891e+00	3.697282e+01	8.424960e+00	1.331297e+01	1.642510e+00	1.060709e+19	
1.000000e-01	1.505681e+01	5.873477e-01	1.769536e-01	4.235180e+00	3.425913e+01	7.585281e+00	1.291447e+01	1.697279e+00	9.407544e+18	
1.000000e-01	1.525568e+01	5.669433e-01	1.337948e-01	4.103227e+00	3.306363e+01	7.279753e+00	1.284035e+01	1.707907e+00	8.971075e+18	
1.000000e-01	1.545454e+01	5.285103e-01	1.329394e-01	3.887334e+00	3.082124e+01	6.603334e+00	1.249424e+01	1.759678e+00	8.004763e+18	
1.000000e-01	1.565341e+01	5.100152e-01	1.061880e-01	3.777554e+00	2.980500e+01	6.321698e+00	1.239512e+01	1.778729e+00	7.602425e+18	
1.000000e-01	1.585227e+01	4.877549e-01	9.010140e-02	3.661552e+00	2.855412e+01	5.920899e+00	1.213909e+01	1.821537e+00	7.029856e+18	
1.000000e-01	1.605114e+01	4.612701e-01	6.885578e-02	3.390780e+00	2.665037e+01	5.672990e+00	1.229863e+01	1.771909e+00	6.675699e+18	
1.000000e-01	1.625000e+01	4.788299e-01	2.152839e-01	4.061586e+00	3.012488e+01	5.140264e+00	1.073505e+01	2.191077e+00	5.914662e+18	
-7.972455e+00	5.864308e+00	1.050278e+01	-4.685280e-01	3.682956e+00	4.785239e+01	1.887848e+01	1.797475e+00	2.228348e-01	2.554069e+19	
5.523191e+00	8.625016e+00	4.427396e-01	-4.418076e+00	5.817503e-02	3.084379e+01	3.518435e+00	7.946963e+00	2.991974e+00	3.597764e+18	
5.825394e+00	8.323858e+00	5.494207e-01	-5.562214e+00	-2.252272e-01	3.868490e+01	4.193370e+00	7.632348e+00	3.099598e+00	4.561957e+18	
5.922685e+00	7.877402e+00	6.937017e-01	-7.178040e+00	-7.369503e-01	4.954140e+01	4.805106e+00	6.926761e+00	3.340264e+00	5.435866e+18	
5.605605e+00	8.008478e+00	6.278019e-01	-6.476851e+00	-5.169600e-01	4.470000e+01	4.430902e+00	7.057803e+00	3.292468e+00	4.901289e+18	
5.733755e+00	7.143106e+00	7.587680e-01	-8.082965e+00	-1.299974e+00	5.539722e+01	4.492288e+00	5.920502e+00	3.747690e+00	4.988982e+18	
5.527957e+00	7.346330e+00	7.432425e-01	-7.881853e+00	-1.132793e+00	5.403970e+01	4.553663e+00	6.126753e+00	3.658123e+00	5.076661e+18	
5.592788e+00	7.684517e+00	7.082532e-01	-7.418316e+00	-8.642087e-01	5.095453e+01	4.630871e+00	6.538440e+00	3.485322e+00	5.186958e+18	
6.265033e+00	8.138479e+00	6.483631e-01	-6.600815e+00	-5.315243e-01	4.592481e+01	4.842540e+00	7.468871e+00	3.158576e+00	5.489343e+18	
5.455067e+00	7.033630e+00	7.108465e-01	-7.599496e+00	-1.322475e+00	5.222237e+01	4.147984e+00	5.835274e+00	3.796581e+00	4.497120e+18	
4.674418e+00	6.904134e+00	6.823960e-01	-7.267372e+00	-1.347581e+00	4.910977e+01	3.632481e+00	5.323128e+00	3.967659e+00	3.760687e+18	
5.305702e+00	9.133027e+00	3.448129e-01	-3.320881e+00	2.625503e-01	2.350025e+01	2.963460e+00	8.594400e+00	2.785166e+00	2.804943e+18	
5.568314e+00	8.969150e+00	3.774149e-01	-3.674992e+00	2.102617e-01	2.591748e+01	3.186680e+00	8.443441e+00	2.836765e+00	3.123829e+18	
5.262951e+00	8.846399e+00	3.837537e-01	-3.779673e+00	1.844551e-01	2.649413e+01	3.134555e+00	8.168143e+00	2.916034e+00	3.049364e+18	
5.225128e+00	8.570281e+00	4.385875e-01	-4.405575e+00	4.980054e-02	3.061983e+01	3.396073e+00	7.743204e+00	3.051053e+00	3.422961e+18	
5.865123e+00	8.769444e+00	4.292146e-01	-4.229033e+00	1.106158e-01	2.971765e+01	3.547664e+00	8.265478e+00	2.897458e+00	3.639519e+18	
6.211099e+00	8.577520e+00	5.009226e-01	-4.980284e+00	-6.190107e-02	3.492589e+01	4.065809e+00	8.116640e+00	2.949612e+00	4.379726e+18	
5.355198e+00	8.270821e+00	5.285127e-01	-5.397300e+00	-1.998481e-01	3.732272e+01	3.890266e+00	7.360780e+00	3.183411e+00	4.128951e+18	
5.917679e+00	7.432017e+00	7.711461e-01	-8.142192e+00	-1.143303e+00	5.581211e+01	4.791872e+00	6.213961e+00	3.614899e+00	5.416960e+18	
5.297749e+00	7.891924e+00	6.323895e-01	-6.586655e+00	-5.797165e-01	4.527489e+01	4.283003e+00	6.772729e+00	3.395549e+00	4.690004e+18	
6.597435e+00	8.423254e+00	5.828427e-01	-5.826656e+00	-2.879473e-01	4.087208e+01	4.670607e+00	8.013495e+00	2.988290e+00	5.243724e+18	
6.713448e+00	7.946726e+00	7.457530e-01	-7.657265e+00	-8.663359e-01	5.312843e+01	5.325388e+00	7.140954e+00	3.268124e+00	6.179126e+18	
6.302301e+00	7.683105e+00	7.688426e-01	-8.011296e+00	-1.011670e+00	5.516516e+01	5.104376e+00	6.639039e+00	3.444960e+00	5.863395e+18	
5.180138e+00	7.234034e+00	7.000054e-01	-7.467495e+00	-1.157246e+00	5.127540e+01	4.195226e+00	5.993134e+00	3.726799e+00	4.564609e+18	
5.727108e+00	6.869006e+00	7.195849e-01	-7.710007e+00	-1.415415e+00	5.287768e+01	4.072446e+00	5.659438e+00	3.870079e+00	4.389209e+18	
5.078763e+00	6.872259e+00	6.699703e-01	-7.178956e+00	-1.395603e+00	4.881499e+01	3.559581e+00	5.313044e+00	4.002444e+00	3.656545e+18	
5.249563e+00	7.558813e+00	6.960943e-01	-7.349711e+00	-9.020273e-01	5.037452e+01	4.395647e+00	6.314730e+00	3.577727e+00	4.850925e+18	
6.986459e+00	8.318397e+00	6.584339e-01	-6.609449e+00	-5.040998e-01	4.636921e+01	5.201188e+00	7.899332e+00	3.027285e+00	6.001697e+18	
7.116356e+00	7.984960e+00	7.725636e-01	-7.906105e+00	-9.292127e-01	5.499042e+01	5.591064e+00	7.237028e+00	3.237153e+00	6.558663e+18	
7.356801e+00	8.228936e+00	7.279583e-01	-7.332871e+00	-7.139916e-01	5.140010e+01	5.646886e+00	7.757155e+00	3.071152e+00	6.638408e+18	
7.695245e+00	8.153103e+00	7.824949e-01	-7.925697e+00	-8.753631e-01	5.543423e+01	5.922357e+00	7.568557e+00	3.130532e+00	7.031939e+18	
5.129140e+00	9.438113e+00	3.076850e-01	-2.882330e+00	3.116804e-01	2.057793e+01	2.767814e+00	8.995609e+00	2.655109e+00	2.525449e+18	
4.952073e+00	9.068094e+00	3.417556e-01	-3.317903e+00	2.551032e-01	2.335980e+01	2.863525e+00	8.378868e+00	2.842963e+00	2.662179e+18	
4.961601e+00	8.713476e+00	3.950933e-01	-3.942341e+00	1.421919e-01	2.742277e+01	3.091336e+00	7.824321e+00	3.016821e+00	2.987623e+18	
5.841026e+00	9.096003e+00	3.694549e-01	-3.549644e+00	2.313411e-01	2.518883e+01	3.225716e+00	8.731013e+00	2.753895e+00	3.179594e+18	
4.982192e+00	8.402080e+00	4.664596e-01	-4.750798e+00	-4.593284e-02	3.279822e+01	3.441200e+00	7.377274e+00	3.169282e+00	3.487429e+18	
4.989473e+00	8.081011e+00	5.539996e-01	-5.740292e+00	-3.296695e-01	3.944774e+01	3.844201e+00	6.938997e+00	3.329870e+00	4.063145e+18	
6.501793e+00	8.784712e+00	4.666506e-01	-4.560848e+00	4.427278e-02	3.223161e+01	3.976641e+00	8.521669e+00	2.829749e+00	4.252345e+18	
5.441912e+00	6.745323e+00	6.808489e-01	-7.312147e+00	-1.432101e+00	4.959096e+01	3.527799e+00	5.181471e+00	4.063284e+00	3.611141e+18	
4.902465e+00	7.447632e+00	6.640142e-01	-7.054324e+00	-9.233203e-01	4.840422e+01	4.116229e+00	6.199007e+00	3.636985e+00	4.451755e+18	
6.005532e+00	7.044710e+00	7.738082e-01	-8.260644e+00	-1.387939e+00	5.653726e+01	4.480020e+00	5.789574e+00	3.802230e+00	4.971457e+18	
4.954970e+00	7.756878e+00	6.310495e-01	-6.634019e+00	-6.451236e-01	4.544860e+01	4.099279e+00	6.495970e+00	3.502443e+00	4.427541e+18	
6.309993e+00	7.255702e+00	8.098441e-01	-8.595726e+00	-1.313007e+00	5.879375e+01	4.844648e+00	5.982198e+00	3.710182e+00	5.492354e+18	
6.668528e+00	7.458999e+00	8.174785e-01	-8.601496e+00	-1.238228e+00	5.897668e+01	5.114606e+00	6.256562e+00	3.591862e+00	5.878008e+18	
7.054576e+00	7.626757e+00	8.264536e-01	-8.632653e+00	-1.204301e+00	5.940868e+01	5.378155e+00	6.507511e+00	3.494136e+00	6.254508e+18	
7.240725e+00	8.556016e+00	6.048424e-01	-5.956299e+00	-2.937647e-01	4.212897e+01	5.091897e+00	8.418552e+00	2.871965e+00	5.845567e+18	
7.962083e+00	8.309673e+00	7.703115e-01	-7.695915e+00	-7.751314e-01	5.420273e+01	6.147654e+00	7.980737e+00	3.004001e+00	7.353791e+18	
7.479553e+00	7.811748e+00	8.304022e-01	-8.598861e+00	-1.140375e+00	5.947124e+01	5.666950e+00	6.824344e+00	3.379433e+00	6.667072e+18	
4.823281e+00	7.152775e+00	6.537859e-01	-6.987919e+00	-1.169336e+00	4.810952e+01	3.887602e+00	5.946291e+00	3.755970e+00	4.125145e+18	
4.729925e+00	6.595572e+00	8.279411e-01	-8.774799e+00	-1.361770e+00	5.861256e+01	4.397409e+00	5.311258e+00	3.933171e+00	4.853441e+18	
4.804072e+00	9.691854e+00	2.795438e-01	-2.549920e+00	3.344052e-01	1.830437e+01	2.589814e+00	9.264428e+00	2.554501e+00	2.271162e+18	
5.105494e+00	9.757270e+00	2.788149e-01	-2.516389e+00	3.381689e-01	1.814866e+01	2.635196e+00	9.451415e+00	2.503433e+00	2.335994e+18	
4.711294e+00	9.375125e+00	3.034683e-01	-2.871317e+00	3.021585e-01	2.037490e+01	2.656300e+00	8.753137e+00	2.717774e+00	2.366143e+18	
4.603737e+00	9.116945e+00	3.253674e-01	-3.160631e+00	2.628425e-01	2.219607e+01	2.695464e+00	8.284370e+00	2.862217e+00	2.422092e+18	
4.645167e+00	8.854250e+00	3.590672e-01	-3.563862e+00	2.057129e-01	2.480993e+01	2.825895e+00	7.870101e+00	2.995114e+00	2.608422e+18	
5.573585e+00	9.337069e+00	3.282256e-01	-3.094721e+00	2.901814e-01	2.208915e+01	2.948549e+00	8.983299e+00	2.670349e+00	2.783641e+18	
4.658928e+00	8.547416e+00	4.149105e-01	-4.206686e+00	7.939331e-02	2.901998e+01	3.074817e+00	7.410797e+00	3.148231e+00	2.964025e+18	
6.190127e+00	9.015800e+00	3.982827e-01	-3.835200e+00	1.878386e-01	2.722985e+01	3.488132e+00	8.757930e+00	2.753291e+00	3.554474e+18	
4.661781e+00	8.240608e+00	4.889004e-01	-5.044646e+00	-1.348769e-01	3.462541e+01	3.432237e+00	7.020319e+00	3.292479e+00	3.474624e+18	
5.985582e+00	6.745058e+00	7.274138e-01	-7.807620e+00	-1.501946e+00	5.337188e+01	3.968064e+00	5.455029e+00	3.955170e+00	4.240091e+18	
4.644736e+00	7.935656e+00	5.638039e-01	-5.897539e+00	-4.044681e-01	4.038843e+01	3.759374e+00	6.667874e+00	3.431658e+00	3.941962e+18	
6.617018e+00	7.094756e+00	8.213982e-01	-8.752125e+00	-1.417292e+00	5.974027e+01	4.755960e+00	5.790078e+00	3.791181e+00	5.365657e+18	
6.897427e+00	8.766022e+00	5.039986e-01	-4.905956e+00	-2.633817e-02	3.479124e+01	4.365237e+00	8.661209e+00	2.795422e+00	4.807482e+18	
7.635555e+00	8.548668e+00	6.533119e-01	-6.411285e+00	-4.063457e-01	4.549779e+01	5.565121e+00	8.518322e+00	2.847436e+00	6.521601e+18	
7.347483e+00	7.410523e+00	8.518275e-01	-8.989849e+00	-1.349347e+00	6.153651e+01	5.212054e+00	6.118673e+00	3.646246e+00	6.017220e+18	
4.604469e+00	7.637216e+00	6.118180e-01	-6.476957e+00	-6.731374e-01	4.439562e+01	3.896582e+00	6.368859e+00	3.564403e+00	4.137975e+18	
4.420877e+00	6.938267e+00	6.965126e-01	-7.382071e+00	-1.283848e+00	4.968990e+01	3.754718e+00	5.390740e+00	3.915900e+00	3.935312e+18	