 TITLE = "Adapted Mesh"
 VARIABLES = "X", "Y"
 ZONE T = "Domain", N=        3942 E=        7388 
 DATAPACKING=POINT, ZONETYPE=FEQUADRILATERAL
  0.000000000000000E+000  3.900000000000000E-003
  0.000000000000000E+000  3.913185759098809E-003
  0.000000000000000E+000  3.926371518197617E-003
  0.000000000000000E+000  3.939557277296427E-003
  0.000000000000000E+000  3.952743036395237E-003
  0.000000000000000E+000  3.965928795494044E-003
  0.000000000000000E+000  3.979114554592855E-003
  0.000000000000000E+000  3.992300313691664E-003
  0.000000000000000E+000  4.005486072790472E-003
  0.000000000000000E+000  4.018671831889282E-003
  0.000000000000000E+000  4.031857590988092E-003
  0.000000000000000E+000  4.045043350086901E-003
  0.000000000000000E+000  4.058229109185709E-003
  0.000000000000000E+000  4.078445723069345E-003
  0.000000000000000E+000  4.102180089683072E-003
  0.000000000000000E+000  4.125914456296797E-003
  0.000000000000000E+000  4.149648822910522E-003
  0.000000000000000E+000  4.173383189524249E-003
  0.000000000000000E+000  4.197117556137975E-003
  0.000000000000000E+000  4.220851922751701E-003
  0.000000000000000E+000  4.252872197164744E-003
  0.000000000000000E+000  4.286778432816632E-003
  0.000000000000000E+000  4.320684668468519E-003
  0.000000000000000E+000  4.354590904120408E-003
  0.000000000000000E+000  4.388680351603969E-003
  0.000000000000000E+000  4.432632881893899E-003
  0.000000000000000E+000  4.476585412183831E-003
  0.000000000000000E+000  4.520537942473762E-003
  0.000000000000000E+000  4.567668966396483E-003
  0.000000000000000E+000  4.621610707559233E-003
  0.000000000000000E+000  4.675552448721981E-003
  0.000000000000000E+000  4.732515030619275E-003
  0.000000000000000E+000  4.796415245507914E-003
  0.000000000000000E+000  4.860315460396552E-003
  0.000000000000000E+000  4.931753597827753E-003
  0.000000000000000E+000  5.005593845774840E-003
  0.000000000000000E+000  5.084953460314790E-003
  0.000000000000000E+000  5.168721807692512E-003
  0.000000000000000E+000  5.258586478888102E-003
  0.000000000000000E+000  5.352274764591558E-003
  0.000000000000000E+000  5.454674864639708E-003
  0.000000000000000E+000  5.561339525000918E-003
  0.000000000000000E+000  5.674851707117308E-003
  0.000000000000000E+000  5.797045344884288E-003
  0.000000000000000E+000  5.925996978838823E-003
  0.000000000000000E+000  6.062675063698357E-003
  0.000000000000000E+000  6.207913414537683E-003
  0.000000000000000E+000  6.362437589889277E-003
  0.000000000000000E+000  6.526884735905816E-003
  0.000000000000000E+000  6.701818881750674E-003
  0.000000000000000E+000  6.887742867687648E-003
  0.000000000000000E+000  7.085107804072325E-003
  0.000000000000000E+000  7.294320688263949E-003
  0.000000000000000E+000  7.517439894571746E-003
  0.000000000000000E+000  7.754390138415032E-003
  0.000000000000000E+000  8.006007670758000E-003
  0.000000000000000E+000  8.273256656142831E-003
  0.000000000000000E+000  8.557913484065028E-003
  0.000000000000000E+000  8.860062490995404E-003
  0.000000000000000E+000  9.181106946797968E-003
  0.000000000000000E+000  9.522282113657781E-003
  0.000000000000000E+000  9.884683749524068E-003
  0.000000000000000E+000  1.026997087367173E-002
  0.000000000000000E+000  1.067961634104499E-002
  0.000000000000000E+000  1.111481273672944E-002
  0.000000000000000E+000  1.157715586726760E-002
  0.000000000000000E+000  1.206863963140211E-002
  0.000000000000000E+000  1.259102513748467E-002
  0.000000000000000E+000  1.314587924960659E-002
  0.000000000000000E+000  1.373587844909629E-002
  0.000000000000000E+000  1.436265454447794E-002
  0.000000000000000E+000  1.502879649412949E-002
  0.000000000000000E+000  1.573659467271067E-002
  0.000000000000000E+000  1.648893970815199E-002
  0.000000000000000E+000  1.728835226390253E-002
  0.000000000000000E+000  1.813793959442361E-002
  0.000000000000000E+000  1.904063065019955E-002
  0.000000000000000E+000  2.000000000000000E-002
  9.999999999999991E-006  3.899999999535898E-003
  1.007370921235358E-005  3.913185758631286E-003
  1.014741842470717E-005  3.926371517726674E-003
  1.022112763706077E-005  3.939557276822062E-003
  1.029483684941436E-005  3.952743035917451E-003
  1.036854606176795E-005  3.965928795012838E-003
  1.044225527412154E-005  3.979114554108228E-003
  1.051596448647513E-005  3.992300313203616E-003
  1.058967369882872E-005  4.005486072299004E-003
  1.066338291118231E-005  4.018671831394392E-003
  1.073709212353591E-005  4.031857590489781E-003
  1.081080133588950E-005  4.045043349585170E-003
  1.088451054824309E-005  4.058229108680557E-003
  1.099752267554292E-005  4.078445722558948E-003
  1.113019925909790E-005  4.102180089166517E-003
  1.126287584265289E-005  4.125914455774085E-003
  1.139555242620788E-005  4.149648822381653E-003
  1.152822900976287E-005  4.173383188989221E-003
  1.166090559331786E-005  4.197117555596790E-003
  1.179358217687285E-005  4.220851922204358E-003
  1.197257749967868E-005  4.252872196609094E-003
  1.216211546295011E-005  4.286778432252186E-003
  1.235165342622153E-005  4.320684667895276E-003
  1.254119138949295E-005  4.354590903538368E-003
  1.273175351828304E-005  4.388680351013086E-003
  1.297745089257458E-005  4.432632881291612E-003
  1.322314826686612E-005  4.476585411570142E-003
  1.346884564115766E-005  4.520537941848670E-003
  1.373231099227846E-005  4.567668965759164E-003
  1.403384867579694E-005  4.621610706907919E-003
  1.433538635931541E-005  4.675552448056673E-003
  1.465381073016985E-005  4.732515029939189E-003
  1.501101690035478E-005  4.796415244811249E-003
  1.536822307053972E-005  4.860315459683310E-003
  1.576756669593152E-005  4.931753597095977E-003
  1.618033826830654E-005  5.005593845023907E-003
  1.662396344275348E-005  5.084953459543269E-003
  1.709223370759788E-005  5.168721806899258E-003
  1.759458280123782E-005  5.258586478071534E-003
  1.811830613746832E-005  5.352274763750684E-003
  1.869072905699214E-005  5.454674863772268E-003
  1.928699113354549E-005  5.561339524105805E-003
  1.992153128202220E-005  5.674851706192746E-003
  2.060460130680656E-005  5.797045343928025E-003
  2.132544895003067E-005  5.925996977849104E-003
  2.208948793371751E-005  6.062675062673180E-003
  2.290137933592491E-005  6.207913413474825E-003
  2.376517907391519E-005  6.362437588786330E-003
  2.468444883425609E-005  6.526884734760205E-003
  2.566234157500375E-005  6.701818880559680E-003
  2.670166820446509E-005  6.887742866448418E-003
  2.780495045754714E-005  7.085107802781892E-003
  2.897446347476739E-005  7.294320686919238E-003
  3.022171369636376E-005  7.517439893169150E-003
  3.154628027685419E-005  7.754390136950963E-003
  3.295283791106953E-005  8.006007669228652E-003
  3.444677633868660E-005  8.273256654544149E-003
  3.603802568732000E-005  8.557913482392496E-003
  3.772705740307985E-005  8.860062489244484E-003
  3.952171585166562E-005  9.181106944963756E-003
  4.142890622541612E-005  9.522282111735057E-003
  4.345475387932704E-005  9.884683747507323E-003
  4.560853283418974E-005  1.026997087155503E-002
  4.789847644062412E-005  1.067961633882201E-002
  5.033125132333220E-005  1.111481273439355E-002
  5.291577814000516E-005  1.157715586481177E-002
  5.566320290845898E-005  1.206863962881877E-002
  5.858337033376516E-005  1.259102513476580E-002
  6.168503928351504E-005  1.314587924674377E-002
  6.498317145457548E-005  1.373587844608041E-002
  6.848688875795117E-005  1.436265454129945E-002
  7.221066363177973E-005  1.502879649077818E-002
  7.616729941266827E-005  1.573659466917573E-002
  8.037295489029051E-005  1.648893970442186E-002
  8.484172072988981E-005  1.728835225996501E-002
  8.959096667690205E-005  1.813793959026567E-002
  9.463706574645705E-005  1.904063064580742E-002
  9.999999999999990E-005  1.999999998607694E-002
  7.755829492805874E-002  1.956026790967740E-002
 -2.030653086131353E-002  5.932657211908688E-003
  7.008860873695870E-003  1.053126925550122E-002
  6.910832879983638E-003  9.866582982321993E-003
  7.312370014521688E-003  9.160153019064107E-003
  6.630629502527761E-003  9.431948241422215E-003
  6.513680793832194E-003  8.956461522533104E-003
  7.871241867945133E-003  9.970955595780782E-003
  8.785654367894285E-003  9.672416616379955E-003
  3.859370717486539E-003  5.782429303821236E-003
  4.192186323745138E-003  6.223225741211313E-003
  5.058200867232361E-003  6.685681902260500E-003
  5.826226801604072E-003  7.788590069604117E-003
  6.720706979254398E-003  1.212723380485132E-002
  6.755370720939586E-003  1.132362369180160E-002
  6.313031929430281E-003  1.029632131470105E-002
  6.205763472242829E-003  9.798566724023655E-003
  6.325673601953524E-003  1.080220846587092E-002
  5.924367172797209E-003  8.982607372425207E-003
  6.966159174210632E-003  8.321581249808842E-003
  8.299214003446019E-003  9.125390762627620E-003
  6.069941648057198E-003  9.359696247084201E-003
  7.789968947811657E-003  1.093087398068344E-002
  6.447185518641431E-003  7.893209619715177E-003
  6.066649206985978E-003  8.446453387930999E-003
  9.597050448413729E-003  9.735926954222157E-003
  3.817079685358044E-004  3.758957880272494E-003
  5.118881257103219E-004  3.745977561595913E-003
  5.353788440735121E-004  3.650077829712694E-003
  5.708336180178953E-004  3.582013849645407E-003
  6.834428288733713E-004  3.676628543771490E-003
  6.325679359479868E-004  3.520132347369726E-003
  7.598320274091845E-004  3.464824143401569E-003
  1.082962200315742E-003  3.718694072322831E-003
  2.073810836617390E-003  4.440955036203530E-003
  2.370126650316958E-003  4.725446480772758E-003
  2.668171993268155E-003  4.872967945185396E-003
  3.129325914754571E-003  5.115822038211376E-003
  2.784469198384885E-003  5.167570005221054E-003
  3.038899877364999E-003  5.476879367530969E-003
  3.505167133089522E-003  5.348961134775004E-003
  3.335509994704787E-003  5.842390936186976E-003
  4.345854982919526E-003  5.768492610997566E-003
  3.636376276855943E-003  6.265759313960758E-003
  4.813933779498639E-003  6.119967798339938E-003
  4.514890822743702E-003  6.695340895776977E-003
  4.825827434890495E-003  7.194063826456502E-003
  5.557116633087310E-003  7.081893597823833E-003
  6.492661186629936E-003  1.282849329228141E-002
  6.118427913937081E-003  1.240563331915105E-002
  6.042256500039637E-003  1.186595665109668E-002
  5.632536458727168E-003  1.015376356954014E-002
  5.698376989624878E-003  1.065706079865897E-002
  7.887590447436742E-003  8.427301324889001E-003
  7.571397955749558E-003  1.179549567073765E-002
  8.899639249328928E-003  1.047905906985933E-002
  5.779897237979223E-003  1.125129150897976E-002
  6.912751161350733E-003  7.659361536570246E-003
  5.471884761786758E-003  9.275393820983843E-003
  5.562482917066030E-003  9.695803472942917E-003
  9.184935648632727E-003  9.027119181712902E-003
  9.928791315100459E-003  1.039249413779817E-002
  1.055122063737773E-002  9.833644921227659E-003
  5.311597455375071E-003  8.302746605561125E-003
  5.410397214269060E-003  8.826849269628042E-003
  5.109536768732124E-003  7.729532429416551E-003
  1.145040698227372E-002  9.971521397636499E-003
  2.727979209896110E-004  3.797037839905741E-003
  2.870884170037390E-004  3.874851387088080E-003
  3.444744775280551E-004  3.850286105743248E-003
  2.972357599890560E-004  3.705618415239798E-003
  3.583706941108545E-004  3.668393061886161E-003
  4.393712141353750E-004  3.665087072832540E-003
  5.849857487297955E-004  3.839666083148005E-003
  8.977760200659774E-004  3.802813975755976E-003
  1.089867830060465E-003  3.909200521461103E-003
  9.491821535404064E-004  3.567108668944030E-003
  1.281359679280359E-003  3.753588682266409E-003
  1.365596899207067E-003  3.994109156386480E-003
  1.694625402394810E-003  4.184375435466140E-003
  1.707359790570679E-003  4.649051486367315E-003
  6.239140432585387E-004  3.387743127939638E-003
  5.315195741836025E-004  3.482940425108405E-003
  7.409114006690861E-004  3.309695743445357E-003
  2.599433320648976E-003  4.428529143242877E-003
  1.987449421810421E-003  4.844470646397690E-003
  3.005490075363357E-003  4.687374124404018E-003
  2.308244038881798E-003  5.154703500108426E-003
  2.588671366023470E-003  5.525911032300108E-003
  4.099533189288641E-003  5.279857740803362E-003
  2.831410817151450E-003  5.898543619312737E-003
  3.100023728003760E-003  6.299584381648566E-003
  4.709439628835945E-003  5.506115362942345E-003
  3.929790235246669E-003  6.722085730570203E-003
  5.504281384805401E-003  6.337798471651035E-003
  5.798271634416501E-003  1.290716151991643E-002
  5.479707702547555E-003  1.238056800745415E-002
  4.957777897755119E-003  1.050584346577630E-002
  8.586674937267775E-003  1.146262883600806E-002
  5.344643977459522E-003  1.178956874198322E-002
  7.317042519329490E-003  1.260481277372102E-002
  5.117630406096992E-003  1.099383683386223E-002
  5.122864798525121E-003  1.139959324392789E-002
  7.557329482067809E-003  7.703575981724854E-003
  4.984601405707633E-003  1.001032266049108E-002
  8.679982743959961E-003  8.492517185805397E-003
  9.676944635767626E-003  1.115614757213948E-002
  4.937375023405168E-003  9.586142790842647E-003
  1.016030038254956E-002  9.020495109081950E-003
  1.083569698258280E-002  1.075486743512118E-002
  4.776691063923273E-003  8.715311298134481E-003
  6.415868153219645E-003  7.238599661152061E-003
  4.866480393508557E-003  9.167080666158303E-003
  4.642206195677491E-003  8.221733727098376E-003
  4.448442420517749E-003  7.710120331670695E-003
  4.205344754772704E-003  7.206510249408817E-003
  1.123926796578432E-002  9.170450257290004E-003
  1.207477523365217E-002  1.061697177563883E-002
  1.241783748448422E-002  9.538902527430415E-003
  1.321962043562464E-002  1.048354944035789E-002
  1.371608827848193E-002  9.533709721628252E-003
  1.434088990954270E-002  1.044603503225872E-002
  6.846528171155479E-002  1.047020602853692E-002
  6.753542752671624E-002  9.320169741096149E-003
  6.749177500769646E-002  1.025975564437554E-002
  6.833026257765754E-002  9.590699848821970E-003
  6.672348025239572E-002  9.459803577385647E-003
  6.636708044463786E-002  1.038317895311713E-002
  6.573702397607567E-002  9.519046780796792E-003
  6.533874337220563E-002  1.042311230517326E-002
  6.473658142207585E-002  9.538543721550509E-003
  6.433292845262724E-002  1.043389764315523E-002
  6.373807379783666E-002  9.543039597429189E-003
  6.333342470841392E-002  1.043595440865415E-002
  6.274083314468122E-002  9.543719147822633E-003
  6.233521573889489E-002  1.043622255289014E-002
  6.174381958754787E-002  9.543785548636469E-003
  6.133713389231722E-002  1.043625063705026E-002
  6.074679821272536E-002  9.543790858175591E-003
  6.033903762928477E-002  1.043625457365338E-002
  5.974976254213559E-002  9.543791654076698E-003
  5.934093237452766E-002  1.043625533633134E-002
  5.875272258463526E-002  9.543791822875633E-003
  5.834282496343590E-002  1.043625545957443E-002
  5.775568183406833E-002  9.543791848416897E-003
  5.734471721959278E-002  1.043625547311835E-002
  5.675864098582835E-002  9.543791850828482E-003
  5.634660944189428E-002  1.043625547406175E-002
  5.576160012980903E-002  9.543791850962678E-003
  5.534850166201819E-002  1.043625547410024E-002
  5.476455927341460E-002  9.543791850966625E-003
  5.435039388206028E-002  1.043625547410105E-002
  5.376751841701048E-002  9.543791850966692E-003
  5.335228610210082E-002  1.043625547410108E-002
  5.277047756060628E-002  9.543791850966711E-003
  5.235417832214136E-002  1.043625547410108E-002
  5.177343670420208E-002  9.543791850966720E-003
  5.135607054218191E-002  1.043625547410107E-002
  5.077639584779790E-002  9.543791850966729E-003
  5.035796276222244E-002  1.043625547410107E-002
  4.977935499139370E-002  9.543791850966743E-003
  4.935985498226297E-002  1.043625547410108E-002
  4.878231413498951E-002  9.543791850966762E-003
  4.836174720230351E-002  1.043625547410109E-002
  4.778527327858533E-002  9.543791850966772E-003
  4.736363942234403E-002  1.043625547410110E-002
  4.678823242218115E-002  9.543791850966772E-003
  4.636553164238456E-002  1.043625547410111E-002
  4.579119156577698E-002  9.543791850966763E-003
  4.536742386242511E-002  1.043625547410110E-002
  4.479415070937282E-002  9.543791850966748E-003
  4.436931608246564E-002  1.043625547410109E-002
  4.379710985296866E-002  9.543791850966732E-003
  4.337120830250619E-002  1.043625547410108E-002
  4.280006899656449E-002  9.543791850966725E-003
  4.237310052254672E-002  1.043625547410108E-002
  4.180302814016031E-002  9.543791850966732E-003
  4.137499274258725E-002  1.043625547410110E-002
  4.080598728375612E-002  9.543791850966750E-003
  4.037688496262781E-002  1.043625547410111E-002
  3.980894642735194E-002  9.543791850966765E-003
  3.937877718266837E-002  1.043625547410112E-002
  3.881190557094776E-002  9.543791850966769E-003
  3.838066940270893E-002  1.043625547410111E-002
  3.781486471454357E-002  9.543791850966763E-003
  3.738256162274948E-002  1.043625547410110E-002
  3.681782385813940E-002  9.543791850966760E-003
  3.638445384279002E-002  1.043625547410110E-002
  3.582078300173522E-002  9.543791850966763E-003
  3.538634606283055E-002  1.043625547410111E-002
  3.482374214533104E-002  9.543791850966772E-003
  3.438823828287108E-002  1.043625547410112E-002
  3.382670128892685E-002  9.543791850966777E-003
  3.339013050291161E-002  1.043625547410112E-002
  3.282966043252267E-002  9.543791850966783E-003
  3.239202272295214E-002  1.043625547410113E-002
  3.183261957611849E-002  9.543791850966783E-003
  3.139391494299269E-002  1.043625547410112E-002
  3.083557871971432E-002  9.543791850966776E-003
  3.039580716303322E-002  1.043625547410111E-002
  2.983853767401804E-002  9.543791850977373E-003
  2.939769928697162E-002  1.043625547410535E-002
  2.884149114176291E-002  9.543791836005053E-003
  2.839958950779632E-002  1.043625549182458E-002
  2.784439052040200E-002  9.543792322214438E-003
  2.740146820155617E-002  1.043625626187913E-002
  2.684708148972954E-002  9.543810121319581E-003
  2.640332084101533E-002  1.043626462045687E-002
  2.584947557572794E-002  9.543962833921315E-003
  2.540515287408777E-002  1.043629159793598E-002
  2.485181991581466E-002  9.544342061309113E-003
  2.440699425807337E-002  1.043633074366151E-002
  2.385442821226446E-002  9.544735854927927E-003
  2.340886421252659E-002  1.043635874314302E-002
  2.285732833041478E-002  9.544911959081213E-003
  2.241076330505436E-002  1.043636720556745E-002
  2.186052709191140E-002  9.544921685428458E-003
  2.141269468803932E-002  1.043635984229226E-002
  2.086407396647812E-002  9.544770435222664E-003
  2.041464526348023E-002  1.043633274574027E-002
  1.986762191635764E-002  9.544403504539802E-003
  1.941654860793771E-002  1.043628956498769E-002
  1.887056062076771E-002  9.544033192658218E-003
  1.841819057497606E-002  1.043623053810425E-002
  1.787236333654964E-002  9.543839139841500E-003
  1.741863942329589E-002  1.043609174019281E-002
  1.687137587240223E-002  9.543375341111366E-003
  1.641440286532940E-002  1.043590694748395E-002
  1.586111345460298E-002  9.541531376695856E-003
  1.539560982630518E-002  1.043705646587854E-002
  1.482358430886748E-002  9.537680352478558E-003
  2.094900201911857E-004  3.818215558392592E-003
  2.259949655580290E-004  3.867698164611974E-003
  2.584167349947864E-004  3.919530916162350E-003
  2.035725483024640E-004  3.774948064512104E-003
  2.308792569145625E-004  3.727040976176505E-003
  4.489551743912343E-004  3.878163234282901E-003
  2.994293234593332E-004  3.622238458725553E-003
  8.796666320967154E-004  4.015057598006135E-003
  1.233106152479333E-003  3.532393087204413E-003
  1.066119268389046E-003  4.138188659330146E-003
  1.590938462200375E-003  3.713305168468569E-003
  1.479450425775155E-003  4.484124417027524E-003
  1.866038242924198E-003  3.857602356197789E-003
  1.279330594623993E-003  4.295447983223239E-003
  7.161220143993095E-004  3.904158412204603E-003
  4.764481314116842E-004  3.575328472221495E-003
  4.808691103069585E-004  3.347706280383339E-003
  9.462133540694760E-004  3.315749069914901E-003
  7.873054667530835E-004  3.176647385353471E-003
  2.212107862815845E-003  4.028623703181957E-003
  1.625950450265190E-003  4.947395546237351E-003
  1.854337025323551E-003  5.168294470269791E-003
  2.943318982789250E-003  4.169625581957475E-003
  2.217780150548188E-003  5.553597219799435E-003
  1.986799435608144E-003  5.414391043380403E-003
  3.642107044138101E-003  4.690239157873859E-003
  2.575782273887915E-003  6.331151250760146E-003
  4.623098374702605E-003  5.041265756542060E-003
  3.367179392846247E-003  6.731271414283419E-003
  5.306600042377515E-003  5.679874292858652E-003
  6.012263202911668E-003  1.357083191968183E-002
  5.432628285090503E-003  1.334859118999723E-002
  5.201020959743513E-003  1.295137144712027E-002
  4.930729719352280E-003  1.261697248990966E-002
  8.264371376959571E-003  1.233364754491263E-002
  4.335752363250817E-003  1.059867516428668E-002
  4.500890230386933E-003  1.090634455107151E-002
  4.611488405344591E-003  1.130847456768198E-002
  4.733061454949704E-003  1.172985707146208E-002
  4.872264092845243E-003  1.218977010399395E-002
  6.968251681545603E-003  1.340846477485011E-002
  8.463058706603148E-003  7.789734688605164E-003
  9.318348986399624E-003  1.205550485699453E-002
  4.399415186039290E-003  1.026707399022939E-002
  4.384661580925679E-003  9.873585807545609E-003
  1.044708634578943E-002  1.177866821685255E-002
  9.539362108833731E-003  8.148136190388382E-003
  7.146091253119763E-003  7.184269030539999E-003
  4.332106256422622E-003  9.475730735077252E-003
  4.258507074941962E-003  9.061511804466101E-003
  4.159973014085085E-003  8.618841091130650E-003
  4.023997145908161E-003  8.149883033047683E-003
  6.104821167655151E-003  6.601375070373681E-003
  1.079283519913352E-002  8.270508197352448E-003
  1.161518490313851E-002  1.156182904761315E-002
  3.620518895459471E-003  7.190596423007928E-003
  3.843176949224716E-003  7.668298312039376E-003
  1.196398306903887E-002  8.453869835067348E-003
  1.276553801479532E-002  1.143293885690469E-002
  1.313092055379643E-002  8.591493527144636E-003
  1.386663740227344E-002  1.136159694369917E-002
  6.919067768969932E-002  1.118584396959482E-002
  6.803501128994789E-002  1.126648388990478E-002
  6.925429426401516E-002  1.001028427508216E-002
  6.697383520908971E-002  1.127480275028975E-002
  6.709241767833363E-002  8.602522730949403E-003
  6.804456220094257E-002  8.649209088554342E-003
  6.917552213386148E-002  8.807871405567552E-003
  6.613758979333782E-002  8.630464513713963E-003
  6.593065169828377E-002  1.130707567779309E-002
  6.514981251763655E-002  8.648362851996173E-003
  6.491670358177319E-002  1.132065431646630E-002
  6.415440952063382E-002  8.654069040574773E-003
  6.391428444983002E-002  1.132412259589017E-002
  6.315831172695964E-002  8.655151590661121E-003
  6.291482657007012E-002  1.132470899578391E-002
  6.216223908563097E-002  8.655268802497590E-003
  6.191580695037972E-002  1.132478439596515E-002
  6.116614572396386E-002  8.655274075560628E-003
  6.091679749334990E-002  1.132479530189502E-002
  6.017003294173020E-002  8.655273877764566E-003
  5.991777491401247E-002  1.132479740261956E-002
  5.917391358578906E-002  8.655273885689886E-003
  5.891874813564597E-002  1.132479777069022E-002
  5.817779283651046E-002  8.655273900919193E-003
  5.791972057263210E-002  1.132479781685313E-002
  5.718167188812506E-002  8.655273903624758E-003
  5.692069291261810E-002  1.132479782066064E-002
  5.618555092102358E-002  8.655273903850015E-003
  5.592166524486079E-002  1.132479782085264E-002
  5.518942995283592E-002  8.655273903859248E-003
  5.492263757672960E-002  1.132479782085788E-002
  5.419330898461364E-002  8.655273903859418E-003
  5.392360990858877E-002  1.132479782085795E-002
  5.319718801639089E-002  8.655273903859442E-003
  5.292458224044784E-002  1.132479782085795E-002
  5.220106704816815E-002  8.655273903859461E-003
  5.192555457230690E-002  1.132479782085793E-002
  5.120494607994544E-002  8.655273903859478E-003
  5.092652690416597E-002  1.132479782085791E-002
  5.020882511172273E-002  8.655273903859499E-003
  4.992749923602503E-002  1.132479782085790E-002
  4.921270414350003E-002  8.655273903859520E-003
  4.892847156788408E-002  1.132479782085791E-002
  4.821658317527733E-002  8.655273903859536E-003
  4.792944389974312E-002  1.132479782085792E-002
  4.722046220705466E-002  8.655273903859534E-003
  4.693041623160214E-002  1.132479782085794E-002
  4.622434123883199E-002  8.655273903859522E-003
  4.593138856346117E-002  1.132479782085795E-002
  4.522822027060933E-002  8.655273903859504E-003
  4.493236089532020E-002  1.132479782085794E-002
  4.423209930238667E-002  8.655273903859487E-003
  4.393333322717924E-002  1.132479782085793E-002
  4.323597833416400E-002  8.655273903859475E-003
  4.293430555903828E-002  1.132479782085793E-002
  4.223985736594132E-002  8.655273903859475E-003
  4.193527789089732E-002  1.132479782085794E-002
  4.124373639771862E-002  8.655273903859489E-003
  4.093625022275638E-002  1.132479782085796E-002
  4.024761542949591E-002  8.655273903859510E-003
  3.993722255461547E-002  1.132479782085797E-002
  3.925149446127321E-002  8.655273903859522E-003
  3.893819488647456E-002  1.132479782085796E-002
  3.825537349305051E-002  8.655273903859523E-003
  3.793916721833364E-002  1.132479782085795E-002
  3.725925252482780E-002  8.655273903859518E-003
  3.694013955019269E-002  1.132479782085794E-002
  3.626313155660511E-002  8.655273903859518E-003
  3.594111188205174E-002  1.132479782085795E-002
  3.526701058838243E-002  8.655273903859523E-003
  3.494208421391078E-002  1.132479782085795E-002
  3.427088962015973E-002  8.655273903859529E-003
  3.394305654576982E-002  1.132479782085796E-002
  3.327476865193704E-002  8.655273903859534E-003
  3.294402887762885E-002  1.132479782085797E-002
  3.227864768371436E-002  8.655273903859536E-003
  3.194500120948789E-002  1.132479782085797E-002
  3.128252671549168E-002  8.655273903859532E-003
  3.094597354134693E-002  1.132479782085796E-002
  3.028640552885503E-002  8.655273903873668E-003
  2.994694587320598E-002  1.132479782085796E-002
  2.929027571341060E-002  8.655273828482392E-003
  2.894791817885536E-002  1.132479782085866E-002
  2.829402110117138E-002  8.655272075302714E-003
  2.794889017435692E-002  1.132479783349141E-002
  2.729696597336977E-002  8.655268703348788E-003
  2.694986110836660E-002  1.132479807100231E-002
  2.629786207643167E-002  8.655463651294026E-003
  2.595083057026614E-002  1.132479908425215E-002
  2.529734391584250E-002  8.657150043042225E-003
  2.495179958223290E-002  1.132480102993458E-002
  2.429810422077118E-002  8.660266246826405E-003
  2.395276970228651E-002  1.132480298827736E-002
  2.330099512069850E-002  8.662268973532311E-003
  2.295374151129135E-002  1.132480401164928E-002
  2.230541333728260E-002  8.662683454358033E-003
  2.195471506740076E-002  1.132480402209086E-002
  2.131226801001755E-002  8.662497098164764E-003
  2.095568997883467E-002  1.132480297595385E-002
  2.032098020511747E-002  8.660821720935711E-003
  1.995666019841991E-002  1.132480045670472E-002
  1.932722948090416E-002  8.657981110088406E-003
  1.895757657432338E-002  1.132479583440622E-002
  1.832854674543494E-002  8.656513978442944E-003
  1.795812685161827E-002  1.132480436284691E-002
  1.732666222658165E-002  8.657245478607875E-003
  1.695689847181299E-002  1.132502837211984E-002
  1.632150451905769E-002  8.657763178181453E-003
  1.594933652851343E-002  1.132669808076638E-002
  1.530408672219779E-002  8.652978964775059E-003
  1.492481312311404E-002  1.133457289274405E-002
  1.425227923423852E-002  8.636402930911682E-003
  1.759812459045288E-004  3.847388633888778E-003
  1.769527218502295E-004  3.887264252064804E-003
  1.982090527571600E-004  3.932155615036449E-003
  1.678587399440290E-004  3.806301976909146E-003
  1.839601522224525E-004  3.735889226000661E-003
  3.303338902098065E-004  3.941624156894394E-003
  2.390936120232010E-004  3.660183259119597E-003
  1.436562157942196E-003  3.306290862614068E-003
  1.854931042172632E-003  3.407810961854612E-003
  5.639077836770097E-004  3.980011997210900E-003
  4.106368755655452E-004  3.479248784086608E-003
  8.289979798847493E-004  4.218548272490597E-003
  6.870331278304703E-004  4.090333834937981E-003
  1.165787228920030E-003  3.149181450061340E-003
  9.384758930118621E-004  3.065698264174337E-003
  1.136017051098668E-003  4.586969513013612E-003
  1.388137699252579E-003  4.761042466865601E-003
  2.576745480810314E-003  3.907748352647658E-003
  2.232212155383289E-003  3.667234784756514E-003
  9.820249489157257E-004  4.369885885858344E-003
  3.777929056441701E-004  3.588474592158042E-003
  6.078236236628203E-004  3.193797647679166E-003
  4.009130857603029E-004  3.175684170924782E-003
  1.542619817483586E-003  5.209174913698491E-003
  1.865648995575762E-003  5.754376119515342E-003
  1.663913278860274E-003  5.450668112454607E-003
  3.405498822791656E-003  4.190466063984352E-003
  2.303814819601877E-003  5.931434253146637E-003
  3.889195152316628E-003  4.068105434028688E-003
  4.249360484078399E-003  4.537550939817921E-003
  2.820828009412879E-003  6.741355966632192E-003
  5.191600083643575E-003  5.008994033956980E-003
  5.610599286305623E-003  1.435504327074335E-002
  5.223381924951301E-003  1.385958908220038E-002
  4.888696626229124E-003  1.344455505425817E-002
  4.634310513042160E-003  1.301539938420784E-002
  7.917599438433637E-003  1.316845407227308E-002
  4.040637929130730E-003  1.122910673628558E-002
  4.157248204807520E-003  1.165040748626039E-002
  4.293545916877053E-003  1.210365868801927E-002
  4.441262651100441E-003  1.256950569883652E-002
  6.549323845547213E-003  1.430467576106072E-002
  8.932410842827077E-003  1.292099987269300E-002
  3.877077554525169E-003  1.049612306859473E-002
  3.936732687566124E-003  1.084947897705420E-002
  3.851305651394142E-003  1.013367074756573E-002
  1.002377724455236E-002  1.268461204807946E-002
  9.168010177842956E-003  7.148812712495839E-003
  7.956239251871151E-003  6.908420192747481E-003