 TITLE = "Edge Error"
 VARIABLES = "X", "Y","Estimate1" 
 ZONE T = "Domain", I=        9131  DATAPACKING=POINT, ZONETYPE=ORDERED
  4.999999999999995E-006  3.899999999767949E-003  3.406066353537277E-002
  0.000000000000000E+000  3.906592879549404E-003  2.816558818144340E-002
  1.003685460617679E-005  3.906592879083592E-003  4.707136649662244E-002
  5.036854606176790E-006  3.913185758865048E-003  3.184453300428883E-002
  0.000000000000000E+000  3.919778638648213E-003  2.410025334179590E-002
  1.011056381853037E-005  3.919778638178980E-003  4.707136649662244E-002
  5.073709212353585E-006  3.926371517962145E-003  1.539711944826604E-002
  0.000000000000000E+000  3.932964397747022E-003  7.640944788657102E-003
  1.018427303088397E-005  3.932964397274368E-003  3.568116826100181E-002
  5.110563818530385E-006  3.939557277059244E-003  1.187937913515751E-002
  0.000000000000000E+000  3.946150156845832E-003  4.190446384249332E-003
  1.025798224323757E-005  3.946150156369756E-003  5.220681220711513E-003
  5.147418424707180E-006  3.952743036156344E-003  7.546935709160449E-004
  0.000000000000000E+000  3.959335915944641E-003  4.190446384248229E-003
  1.033169145559116E-005  3.959335915465144E-003  5.137433863064365E-003
  5.184273030883975E-006  3.965928795253442E-003  6.308352477408816E-004
  0.000000000000000E+000  3.972521675043450E-003  2.214293172893460E-003
  1.040540066794474E-005  3.972521674560533E-003  2.806478404427932E-003
  5.221127637060770E-006  3.979114554350542E-003  2.449141755349213E-004
  0.000000000000000E+000  3.985707434142259E-003  6.993059696752731E-004
  1.047910988029833E-005  3.985707433655922E-003  8.343956632502958E-004
  5.257982243237565E-006  3.992300313447640E-003  1.207322144239264E-004
  0.000000000000000E+000  3.998893193241068E-003  1.251899329460965E-004
  1.055281909265193E-005  3.998893192751310E-003  1.292961565647952E-004
  5.294836849414360E-006  4.005486072544738E-003  1.569529256173828E-004
  0.000000000000000E+000  4.012078952339878E-003  9.232993527716536E-005
  1.062652830500551E-005  4.012078951846698E-003  1.889910142027234E-004
  5.331691455591155E-006  4.018671831641837E-003  1.450096110590480E-004
  0.000000000000000E+000  4.025264711438686E-003  1.026155763600401E-004
  1.070023751735911E-005  4.025264710942087E-003  2.405317183778820E-004
  5.368546061767955E-006  4.031857590738937E-003  7.834093664788895E-005
  0.000000000000000E+000  4.038450470537497E-003  1.026155763600401E-004
  1.077394672971271E-005  4.038450470037475E-003  2.401598145044924E-004
  5.405400667944750E-006  4.045043349836035E-003  9.246783807662103E-005
  0.000000000000000E+000  4.051636229636306E-003  9.982272382583868E-005
  1.084765594206629E-005  4.051636229132863E-003  2.419205534298973E-004
  5.442255274121545E-006  4.058229108933133E-003  1.375996309210371E-004
  0.000000000000000E+000  4.068337416127527E-003  1.672793947398916E-004
  1.094101661189301E-005  4.068337415619752E-003  4.012685814720836E-004
  5.498761337771460E-006  4.078445722814147E-003  1.016262844315118E-004
  0.000000000000000E+000  4.090312906376209E-003  1.963865217257136E-004
  1.106386096732041E-005  4.090312905862733E-003  4.706393171751178E-004
  5.565099629548950E-006  4.102180089424794E-003  7.075994305350029E-005
  0.000000000000000E+000  4.114047272989934E-003  1.940224433905848E-004
  1.119653755087539E-005  4.114047272470301E-003  4.317164951343383E-004
  5.631437921326445E-006  4.125914456035441E-003  3.916473806590663E-005
  0.000000000000000E+000  4.137781639603660E-003  1.500303711585561E-004
  1.132921413443038E-005  4.137781639077869E-003  3.111710037230105E-004
  5.697776213103940E-006  4.149648822646087E-003  3.103753491245087E-005
  0.000000000000000E+000  4.161516006217386E-003  1.500303711585616E-004
  1.146189071798538E-005  4.161516005685437E-003  2.672367326874833E-004
  5.764114504881435E-006  4.173383189256735E-003  2.532510550487553E-005
  0.000000000000000E+000  4.185250372831112E-003  1.686722639162928E-004
  1.159456730154036E-005  4.185250372293005E-003  2.496029285343295E-004
  5.830452796658930E-006  4.197117555867383E-003  2.977721813802514E-005
  0.000000000000000E+000  4.208984739444838E-003  2.036087767881420E-004
  1.172724388509535E-005  4.208984738900574E-003  3.012698719680695E-004
  5.896791088436425E-006  4.220851922478029E-003  4.629794011571135E-005
  0.000000000000000E+000  4.236862059958223E-003  3.553291849781735E-004
  1.188307983827577E-005  4.236862059406726E-003  5.045308591259368E-004
  5.986288749839340E-006  4.252872196886920E-003  3.846660166375538E-005
  0.000000000000000E+000  4.269825314990688E-003  3.762577086146271E-004
  1.206734648131439E-005  4.269825314430640E-003  5.341121058735759E-004
  6.081057731475055E-006  4.286778432534409E-003  1.372971986435373E-005
  0.000000000000000E+000  4.303731550642576E-003  3.522424467652277E-004
  1.225688444458582E-005  4.303731550073731E-003  4.675736290547986E-004
  6.175826713110765E-006  4.320684668181898E-003  7.484505708982515E-006
  0.000000000000000E+000  4.337637786294464E-003  3.342927149126419E-004
  1.244642240785724E-005  4.337637785716822E-003  4.195133528879273E-004
  6.270595694746475E-006  4.354590903829388E-003  1.737998714859943E-005
  0.000000000000000E+000  4.371635627862188E-003  2.398645809039472E-004
  1.263647245388800E-005  4.371635627275727E-003  2.963146976295007E-004
  6.365876759141520E-006  4.388680351308527E-003  4.153937631808127E-005
  0.000000000000000E+000  4.410656616748934E-003  4.131419160930562E-004
  1.285460220542881E-005  4.410656616152349E-003  5.057076981820059E-004
  6.488725446287290E-006  4.432632881592756E-003  4.702808640004206E-005
  0.000000000000000E+000  4.454609147038865E-003  4.302247905488021E-004
  1.310029957972035E-005  4.454609146430877E-003  5.204122453610152E-004
  6.611574133433060E-006  4.476585411876986E-003  3.885622353349292E-005
  0.000000000000000E+000  4.498561677328797E-003  4.335170967396321E-004
  1.334599695401189E-005  4.498561676709405E-003  5.242143735213117E-004
  6.734422820578830E-006  4.520537942161216E-003  4.648269711559829E-005
  0.000000000000000E+000  4.544103454435122E-003  4.648675405617112E-004
  1.360057831671806E-005  4.544103453803917E-003  5.621644393007516E-004
  6.866155496139230E-006  4.567668966077824E-003  4.951390406451777E-005
  0.000000000000000E+000  4.594639836977858E-003  4.079170939191908E-004
  1.388307983403770E-005  4.594639836333542E-003  4.938709232826565E-004
  7.016924337898470E-006  4.621610707233576E-003  4.008817004176456E-005
  0.000000000000000E+000  4.648581578140607E-003  4.292111244233798E-004
  1.418461751755617E-005  4.648581577482296E-003  4.968892658527255E-004
  7.167693179657705E-006  4.675552448389327E-003  5.155016759523729E-005
  0.000000000000000E+000  4.704033739670628E-003  4.681155883699190E-004
  1.449459854474263E-005  4.704033738997930E-003  5.344034303502844E-004
  7.326905365084925E-006  4.732515030279232E-003  4.913258509239207E-005
  0.000000000000000E+000  4.764465138063594E-003  5.490519935699786E-004
  1.483241381526232E-005  4.764465137375219E-003  6.221519912181182E-004
  7.505508450177390E-006  4.796415245159582E-003  4.244406168127837E-005
  0.000000000000000E+000  4.828365352952233E-003  5.490519935699638E-004
  1.518961998544725E-005  4.828365352247279E-003  6.221030466395432E-004
  7.684111535269860E-006  4.860315460039931E-003  4.942216866431325E-005
  0.000000000000000E+000  4.896034529112152E-003  5.013089767416279E-004
  1.556789488323562E-005  4.896034528389643E-003  5.575257737882700E-004
  7.883783347965760E-006  4.931753597461865E-003  5.107615566597362E-005
  0.000000000000000E+000  4.968673721801297E-003  4.961641209205467E-004
  1.597395248211903E-005  4.968673721059942E-003  5.455330722852151E-004
  8.090169134153271E-006  5.005593845399373E-003  4.782032090899428E-005
  0.000000000000000E+000  5.045273653044816E-003  4.750053279799184E-004
  1.640215085553001E-005  5.045273652283588E-003  5.175513599818966E-004
  8.311981721376740E-006  5.084953459929029E-003  4.922152594861792E-005
  0.000000000000000E+000  5.126837634003651E-003  5.013937070026921E-004
  1.685809857517568E-005  5.126837633221263E-003  5.463033352682260E-004
  8.546116853798940E-006  5.168721807295885E-003  3.779774051537916E-005
  0.000000000000000E+000  5.213654143290307E-003  4.161565147938672E-004
  1.734340825441785E-005  5.213654142485396E-003  4.654213643192499E-004
  8.797291400618910E-006  5.258586478479817E-003  3.791789728087647E-005
  0.000000000000000E+000  5.305430621739830E-003  5.214609400708220E-004
  1.785644446935307E-005  5.305430620911109E-003  5.801060942606398E-004
  9.059153068734160E-006  5.352274764171121E-003  4.761008638321497E-005
  0.000000000000000E+000  5.403474814615634E-003  6.001241610318106E-004
  1.840451759723023E-005  5.403474813761476E-003  6.764595358324000E-004
  9.345364528496070E-006  5.454674864205988E-003  4.794530183185652E-005
  0.000000000000000E+000  5.508007194820313E-003  6.642146227461534E-004
  1.898886009526882E-005  5.508007193939036E-003  7.567046172727538E-004
  9.643495566772745E-006  5.561339524553361E-003  5.129711536643244E-005
  0.000000000000000E+000  5.618095616059113E-003  7.068550255183675E-004
  1.960426120778384E-005  5.618095615149275E-003  8.052825746906413E-004
  9.960765641011099E-006  5.674851706655027E-003  5.257898669487998E-005
  0.000000000000000E+000  5.735948526000798E-003  6.411346136491335E-004
  2.026306629441438E-005  5.735948525060385E-003  7.248293840892236E-004
  1.030230065340328E-005  5.797045344406156E-003  5.399601833557804E-005
  0.000000000000000E+000  5.861521161861555E-003  6.729511149432540E-004
  2.096502512841861E-005  5.861521160888564E-003  7.444805169037617E-004
  1.066272447501533E-005  5.925996978343963E-003  5.176248449822488E-005
  0.000000000000000E+000  5.994336021268590E-003  6.509644145916636E-004
  2.170746844187409E-005  5.994336020261142E-003  7.146847707026726E-004
  1.104474396685875E-005  6.062675063185769E-003  5.418226416647163E-005
  0.000000000000000E+000  6.135294239118020E-003  6.917348756206586E-004
  2.249543363482121E-005  6.135294238074003E-003  7.594460924259584E-004
  1.145068966796246E-005  6.207913414006254E-003  5.561838479994977E-005
  0.000000000000000E+000  6.285175502213480E-003  6.776162319285629E-004
  2.333327920492005E-005  6.285175501130578E-003  7.428003143780022E-004
  1.188258953695760E-005  6.362437589337803E-003  5.849586622464217E-005
  0.000000000000000E+000  6.444661162897546E-003  7.211302385635664E-004
  2.422481395408564E-005  6.444661161773267E-003  7.905002015491450E-004
  1.234222441712805E-005  6.526884735333010E-003  5.961359815982493E-005
  0.000000000000000E+000  6.614351808828245E-003  6.502768025272131E-004
  2.517339520462992E-005  6.614351807659942E-003  7.069490114613420E-004
  1.283117078750188E-005  6.701818881155177E-003  6.252641553816935E-005
  0.000000000000000E+000  6.794780874719161E-003  6.911289645843786E-004
  2.618200488973442E-005  6.794780873504049E-003  7.513614762303909E-004
  1.335083410223255E-005  6.887742867068032E-003  6.009950063082721E-005
  0.000000000000000E+000  6.986425335879986E-003  3.896776022161186E-004
  2.725330933100611E-005  6.986425334615155E-003  4.073957558549733E-004
  1.390247522877357E-005  7.085107803427109E-003  5.895530847824824E-005
  0.000000000000000E+000  7.189714246168138E-003  5.248374718601253E-004
  2.838970696615726E-005  7.189714244850565E-003  5.491130333101827E-004
  1.448723173738369E-005  7.294320687591593E-003  6.278528378278101E-005
  0.000000000000000E+000  7.405880291417848E-003  6.000980271212905E-004
  2.959808858556558E-005  7.405880290044194E-003  6.438119230236971E-004
  1.511085684818188E-005  7.517439893870448E-003  6.334277962871691E-005
  0.000000000000000E+000  7.635915016493389E-003  7.065454000273534E-004
  3.088399698660897E-005  7.635915015060056E-003  7.722717276163419E-004
  1.577314013842709E-005  7.754390137682997E-003  6.390761053198281E-005
  0.000000000000000E+000  7.880198904586517E-003  7.502807642634795E-004
  3.224955909396186E-005  7.880198903089808E-003  8.199769716545324E-004
  1.647641895553476E-005  8.006007669993327E-003  6.008207449292019E-005
  0.000000000000000E+000  8.139632163450415E-003  3.106936892744968E-004
  3.369980712487807E-005  8.139632161886401E-003  3.322694719422304E-004
  1.722338816934330E-005  8.273256655343491E-003  5.876768940059711E-005
  0.000000000000000E+000  8.415585070103929E-003  3.278829718639974E-004
  3.524240101300330E-005  8.415585068468323E-003  3.363594996405151E-004
  1.801901284366000E-005  8.557913483228763E-003  6.222195039293967E-005
  0.000000000000000E+000  8.708987987530215E-003  3.480313999886386E-004
  3.688254154519992E-005  8.708987985818491E-003  3.570288109012363E-004
  1.886352870153992E-005  8.860062490119943E-003  6.141482742604313E-005
  0.000000000000000E+000  9.020584718896687E-003  1.516738480638222E-004
  3.862438662737274E-005  9.020584717104121E-003  1.381790568477901E-004
  1.976085792583281E-005  9.181106945880861E-003  5.898881568616631E-005
  0.000000000000000E+000  9.351694530227874E-003  5.473721380673794E-004
  4.047531103854087E-005  9.351694528349407E-003  5.892035824374634E-004
  2.071445311270806E-005  9.522282112696418E-003  5.988731891292167E-005
  0.000000000000000E+000  9.703482931590925E-003  5.814273063571291E-004
  4.244183005237158E-005  9.703482929621190E-003  6.257660643623358E-004
  2.172737693966352E-005  9.884683748515696E-003  5.679921129806172E-005
  0.000000000000000E+000  1.007732731159790E-002  3.785474250437675E-004
  4.453164335675840E-005  1.007732730953118E-002  4.066920752853099E-004
  2.280426641709487E-005  1.026997087261338E-002  5.348823584257048E-005
  0.000000000000000E+000  1.047479360735836E-002  6.884957413627389E-004
  4.675350463740693E-005  1.047479360518852E-002  7.333618225103428E-004
  2.394923822031206E-005  1.067961633993350E-002  5.556976694708888E-005
  0.000000000000000E+000  1.089721453888721E-002  7.314394737636378E-004
  4.911486388197816E-005  1.089721453660778E-002  7.790733199049848E-004
  2.516562566166610E-005  1.111481273556150E-002  5.428712134376788E-005
  0.000000000000000E+000  1.134598430199852E-002  4.992195865064462E-004
  5.162351473166868E-005  1.134598429960266E-002  5.078210801376074E-004
  2.645788907000258E-005  1.157715586603968E-002  5.198935145489730E-005
  0.000000000000000E+000  1.182289774933486E-002  9.762846139204977E-004
  5.428949052423207E-005  1.182289774681527E-002  1.014988067930682E-003
  2.783160145422949E-005  1.206863963011044E-002  5.382720284688028E-005
  0.000000000000000E+000  1.232983238444339E-002  1.037667913652380E-003
  5.712328662111207E-005  1.232983238179228E-002  1.078759629854393E-003
  2.929168516688258E-005  1.259102513612523E-002  5.156776432393155E-005
  0.000000000000000E+000  1.286845219354563E-002  7.942686233061308E-004
  6.013420480864010E-005  1.286845219075479E-002  8.009291036915823E-004
  3.084251964175752E-005  1.314587924817518E-002  4.848626050962158E-005
  0.000000000000000E+000  1.344087884935144E-002  1.116244115060133E-003
  6.333410536904526E-005  1.344087884641209E-002  1.129475871571466E-003
  3.249158572728774E-005  1.373587844758835E-002  4.955251568515008E-005
  0.000000000000000E+000  1.404926649678711E-002  1.185823859651439E-003
  6.673503010626333E-005  1.404926649368993E-002  1.199798114850312E-003
  3.424344437897558E-005  1.436265454288869E-002  4.674487869178935E-005
  0.000000000000000E+000  1.469572551930371E-002  9.727734767974425E-004
  7.034877619486545E-005  1.469572551603882E-002  9.488342060001170E-004
  3.610533181588986E-005  1.502879649245384E-002  4.093805017931180E-005
  0.000000000000000E+000  1.538269558342008E-002  1.251049209156909E-003
  7.418898152222400E-005  1.538269557997695E-002  1.182175410362853E-003
  3.808364970633414E-005  1.573659467094320E-002  4.046892276895740E-005
  0.000000000000000E+000  1.611276719043133E-002  1.329786781153794E-003
  7.827012715147939E-005  1.611276718679879E-002  1.256428496994681E-003
  4.018647744514525E-005  1.648893970628693E-002  3.967212284601556E-005
  0.000000000000000E+000  1.688864598602726E-002  1.123983917357153E-003
  8.260733781009015E-005  1.688864598219343E-002  9.650937753681233E-004
  4.242086036494491E-005  1.728835226193377E-002  5.601792052926686E-005
  0.000000000000000E+000  1.771314592916307E-002  1.717482418120686E-003
  8.721634370339593E-005  1.771314592511534E-002  1.373059142983575E-003
  4.479548333845102E-005  1.813793959234464E-002  9.295713793623646E-006
  0.000000000000000E+000  1.858928512231158E-002  9.776683556817337E-003
  9.211401621167955E-005  1.858928511803654E-002  1.019318711350186E-002
  4.731853287322852E-005  1.904063064800349E-002  9.447421404060256E-005
  0.000000000000000E+000  1.952031532509978E-002  1.074732816984662E-002
  9.731853287322847E-005  1.952031531594218E-002  1.084122170551414E-002
  4.999999999999995E-005  1.999999999303847E-002  7.428095282685108E-005
 -2.024596176969936E-002  3.434781231224467E-004  0.434238605977852     
 -2.051971500000000E-002  2.411463192307695E-004  5.815442801156319E-002
 -2.024596176969936E-002  5.846244423532163E-004  0.300946401536921     
 -2.051971500000000E-002  7.234389576923086E-004  2.203749012372298E-002
 -2.024596176969936E-002  8.257707615839857E-004  0.167654197095990     
 -2.032795483351352E-002  1.088075242496796E-003  5.085044050265044E-002
 -2.051971500000000E-002  1.205731596153847E-003  1.884250441034842E-002
 -2.032795483351352E-002  1.329221561727566E-003  3.504342050397003E-002
 -2.029579669802518E-002  1.552875171402500E-003  7.884976863526755E-002
 -2.051971500000000E-002  1.688024234615385E-003  1.905387547909805E-002
 -2.029579669802518E-002  1.794021490633270E-003  3.425841160630391E-002
 -2.029511865873832E-002  2.043778683336429E-003  8.537668855885988E-002
 -2.051971500000000E-002  2.170316873076924E-003  2.671628565113314E-002
 -2.029511865873832E-002  2.284925002567198E-003  4.116898059630861E-002
 -2.030401265343278E-002  2.775095133620733E-003  3.691423823840695E-002
 -2.030401265343278E-002  2.533948814389964E-003  7.931462022393762E-002
 -2.051971500000000E-002  2.652609511538464E-003  2.671628565113313E-002
 -2.031020519550858E-002  3.256033241218704E-003  3.994417943258489E-002
 -2.031020519550858E-002  3.014886921987935E-003  6.152280527047622E-002
 -2.051971500000000E-002  3.134902150000002E-003  1.795475137726295E-002
 -2.031232470409883E-002  3.737780434525603E-003  4.894168529326401E-002
 -2.031232470409883E-002  3.496634115294832E-003  5.246987922996861E-002
 -2.051971500000000E-002  3.617194788461542E-003  5.193397406668346E-003
 -2.030565365909801E-002  4.223658180325728E-003  6.812803294114021E-002
 -2.030565365909801E-002  3.982511861094960E-003  9.478854727401081E-002
 -2.051971500000000E-002  4.099487426923081E-003  3.173383016527517E-002
 -2.029785112651494E-002  4.710962190829612E-003  0.104258818157330     
 -2.029785112651494E-002  4.469815871598842E-003  0.176340819437528     
 -2.051971500000000E-002  4.581780065384618E-003  7.505715122341716E-002
 -2.029856631445037E-002  5.200198566626329E-003  7.799001857820601E-002
 -2.029856631445037E-002  4.959052247395559E-003  0.166534923692412     
 -2.051971500000000E-002  5.064072703846156E-003  0.106027519429578     
 -2.031085340571178E-002  5.704168054229367E-003  3.468828691974703E-002
 -2.031085340571178E-002  5.463021734998598E-003  0.122886758833102     
 -2.051971500000000E-002  5.546365342307694E-003  0.106027519429578     
 -2.041290082052897E-002  5.859277418667092E-003  3.419182407948064E-002
 -2.051971500000000E-002  6.028657965769232E-003  5.444096582365925E-002
 -2.041290082052897E-002  6.100423722897861E-003  1.493147992601838E-002
 -2.019164244974975E-002  5.990078698779503E-003  5.907619151177890E-002
 -2.029845662922079E-002  6.159459245881642E-003  5.070152898434468E-002
 -2.008959503493257E-002  5.834969334341777E-003  6.517801113511076E-002
 -1.985832467613693E-002  5.944284582710766E-003  5.137902439417101E-002
 -1.987072145262793E-002  5.730139695289259E-003  7.263382396442118E-002
 -1.963542076605309E-002  5.605570570740879E-003  3.961862066049401E-002
 -1.942309208490744E-002  5.740060588627237E-003  4.010174462020728E-002
 -1.941906175712824E-002  5.506176215709866E-003  5.318471382931314E-002
 -1.919509161667809E-002  5.398037225450470E-003  4.373394708049596E-002
 -1.899293506344129E-002  5.546490826794259E-003  8.506877199803206E-003
 -1.898129360413679E-002  5.303861818648503E-003  5.356103440845698E-002
 -1.875591987753342E-002  5.216171954455543E-003  2.408515397511377E-002
 -1.856792535241889E-002  5.363144555055831E-003  1.100485392267325E-002
 -1.854470817905233E-002  5.127001089519082E-003  4.671234312073757E-002
 -1.832594632987250E-002  5.050455732999995E-003  1.214530874827878E-002
 -1.814815304806806E-002  5.189619523844263E-003  1.916286966358274E-002
 -1.811738572400277E-002  4.966101566724886E-003  4.373540001709807E-002
 -1.790714646355819E-002  4.884684962359541E-003  9.915744700828490E-003
 -1.773373733410872E-002  5.025543333539038E-003  2.687331855740838E-002
 -1.770129135546859E-002  4.804962938329426E-003  5.641632904472226E-002
 -1.749483297859373E-002  4.726100775543672E-003  6.488179008579561E-003
 -1.732477680295123E-002  4.870550417815285E-003  3.218809910765445E-002
 -1.729172755552584E-002  4.650829883850035E-003  6.647222855908146E-002
 -1.708763092004644E-002  4.575647578794076E-003  3.082859948626931E-003
 -1.692134992479383E-002  4.724282511019726E-003  3.720816556964390E-002
 -1.688730946495692E-002  4.504650563692153E-003  7.337565331845861E-002
 -1.668508356138859E-002  4.434800736460395E-003  3.900750773628246E-005
 -1.652351533654078E-002  4.586389023797256E-003  4.270996648878438E-002
 -1.648757042822506E-002  4.367904264339847E-003  8.028160578514151E-002
 -1.628796698747238E-002  4.304014523914037E-003  1.540074627346913E-003
 -1.613131229904576E-002  4.456527417460858E-003  4.467531453348308E-002
 -1.609327708314089E-002  4.241049389698186E-003  8.771580690599386E-002
 -1.589664570101355E-002  4.181940243128155E-003  6.548086539304027E-004
 -1.574476089728388E-002  4.334363566259426E-003  4.416600576316990E-002
 -1.570478420358316E-002  4.122741526142575E-003  8.891472933564196E-002
 -1.551104276075371E-002  4.067405614507122E-003  2.511037812957979E-004
 -1.536386227191290E-002  4.219572058972124E-003  4.556455810324983E-002
 -1.532200563281311E-002  4.011812824205399E-003  8.596219828850116E-002
 -1.513118856313377E-002  3.960128886895538E-003  2.453209284454874E-004
 -1.498859894188102E-002  4.111836492411599E-003  4.770039309756498E-002
 -1.494496236104248E-002  3.907986110636736E-003  9.537664840881210E-002
 -1.475720017564230E-002  3.859797346851336E-003  1.468916560627769E-002
 -1.461910553020134E-002  4.010894040782549E-003  4.447540381186979E-002
 -1.457393296605390E-002  3.810997671481088E-003  0.105886521720921     
 -1.438918058746394E-002  3.765962708764348E-003  2.354354190964554E-002
 -1.425536108931030E-002  3.916450860708211E-003  4.793780390847478E-002
 -1.420870335616130E-002  3.720319204060258E-003  0.120766227650350     
 -1.402690308626355E-002  3.678220139560342E-003  2.923819471520715E-002
 -1.389724946288927E-002  3.828199354722271E-003  4.640925442725262E-002
 -1.384926869114516E-002  3.635612138278492E-003  0.125536284223735     
 -1.367035892486364E-002  3.596561002260305E-003  2.624971927545510E-002
 -1.354485331875519E-002  3.745895512927042E-003  4.839092966625193E-002
 -1.349559717584795E-002  3.556865161746926E-003  0.123943462726863     
 -1.331960165592416E-002  3.520752159956883E-003  1.366094866721329E-002
 -1.319812298867210E-002  3.669273232783974E-003  4.913872555574444E-002
 -1.314763307485676E-002  3.483825720327194E-003  0.111933602383331     
 -1.297463804377154E-002  3.450511829526574E-003  1.380975757917288E-003
 -1.285701913834215E-002  3.598078900447305E-003  5.282248328895495E-002
 -1.280550277450899E-002  3.416243936819593E-003  9.693595218526568E-002
 -1.263538026110194E-002  3.385517969571776E-003  1.891637730797387E-002
 -1.252156833590804E-002  3.532083134407378E-003  5.475968850513414E-002
 -1.246906472793036E-002  3.353790096238831E-003  9.014782334260658E-002
 -1.230178392005110E-002  3.325484444538182E-003  2.079440641322380E-002
 -1.219165146000890E-002  3.471037565160706E-003  5.437050744794528E-002
 -1.213818257732353E-002  3.296166748624456E-003  8.584989457261837E-002
 -1.197384538452037E-002  3.270281613939472E-003  1.725959240864341E-002
 -1.186727949278599E-002  3.414726955913645E-003  5.025010568197247E-002
 -1.181307476002503E-002  3.243288700606139E-003  8.443245479782142E-002
 -1.165155678214196E-002  3.219665872121438E-003  1.272404089366048E-002
 -1.154848240857003E-002  3.362948069658254E-003  4.899743245299511E-002
 -1.149353032242133E-002  3.194879899199379E-003  8.682911006260131E-002
 -1.133479232317393E-002  3.173366076053872E-003  1.494394382384190E-002
 -1.123511522175244E-002  3.315476203203286E-003  5.240553626074647E-002
 -1.117945159607697E-002  3.150680182520963E-003  9.130878594796664E-002
 -1.102356116267585E-002  3.131243481149266E-003  1.691831853008201E-002
 -1.092710806276278E-002  3.272109247765339E-003  5.157086109623880E-002
 -1.087089473078315E-002  3.110562419244228E-003  8.299407996709615E-002
 -1.071770952262074E-002  3.093076672104483E-003  1.263572062721894E-002
 -1.062443412042777E-002  3.232659525094498E-003  4.632737999728257E-002
 -1.056770201217844E-002  3.074308011338680E-003  7.583967838524654E-002
 -1.041720560813745E-002  3.058668784948699E-003  1.014120953318903E-002
 -1.032705891454459E-002  3.196945028833352E-003  4.140160845373118E-002
 -1.026983791269657E-002  3.041722949453356E-003  7.424699188268105E-002
 -1.012212002481153E-002  3.027891692373113E-003  1.139897369515005E-002
 -1.003495739989446E-002  3.164791178587724E-003  3.923748673245024E-002
 -9.977386205602269E-003  3.012683677622828E-003  6.842110429557746E-002
 -9.832316979273992E-003  3.000538834721915E-003  9.630562211128249E-003
 -9.748063969600537E-003  3.136025703205102E-003  3.827017796364750E-002
 -9.690157368189324E-003  2.986981374089578E-003  6.853585114141078E-002
 -9.547691215615054E-003  2.976423825691848E-003  3.534699489376434E-003
 -9.466287535164035E-003  3.110480862081899E-003  3.901984839179269E-002
 -9.408074392263221E-003  2.964436445200982E-003  7.728128632772883E-002
 -9.268277894637484E-003  2.955431902368025E-003  5.833998259886716E-004
 -9.189597525784717E-003  3.088001292596367E-003  3.830227304417354E-002
 -9.131204708610001E-003  2.944939713373358E-003  8.444946723638508E-002
 -8.993962886738271E-003  2.937375408576058E-003  3.338128147641825E-004
 -8.917940034980145E-003  3.068435637439627E-003  3.703041417398634E-002
 -8.859378581961182E-003  2.928301942413984E-003  8.076084979291984E-002
 -8.724620684866204E-003  2.922142407850028E-003  3.587786917841847E-003
 -8.651219024399560E-003  3.051635526083661E-003  4.030537337320363E-002
 -8.592483979062707E-003  2.914415762656137E-003  7.610705040853580E-002
 -8.460267317423227E-003  2.909627372781755E-003  1.415519945853205E-002
 -8.389348167470563E-003  3.037460186680403E-003  5.903409713058762E-002
 -8.330533166297727E-003  2.903178678572389E-003  8.691883968105230E-002
 -8.200804729849156E-003  2.899567975098446E-003  4.018716185234731E-002
 -8.132233589905263E-003  3.025774919794935E-003  0.107236813603995     
 -8.073424303409356E-003  2.894331402422344E-003  0.125822646848770     
 -7.946051584106325E-003  2.891824535182571E-003  0.106782373211129     
 -7.879773772347906E-003  3.016451119352068E-003  0.212917211373592     
 -7.820972192988768E-003  2.887737307415807E-003  0.202972758354289     
 -7.695976438126571E-003  2.886384321082062E-003  0.237463708718264     
 -7.632071790561772E-003  3.009369734670150E-003  0.433950287045796     
 -7.573353847457994E-003  2.883390164166909E-003  0.334187877405848     
 -7.450088225157821E-003  2.883499644504049E-003  0.439866954433889     
 -7.389057354928704E-003  3.004402124752313E-003  0.665301949544993     
 -7.329696380193328E-003  2.881526191501365E-003  0.559797892226603     
 -7.207241708456974E-003  2.883839175265711E-003  0.368638509472865     
 -7.150421412035868E-003  3.001427808926463E-003  0.653328594005712     
 -7.088997610528631E-003  2.882838312442544E-003  0.719041990896440     
 -6.967532955922012E-003  2.889133512929186E-003  0.193433161930761     
 -6.916594311441797E-003  3.006736900352306E-003  0.397319268118584     
 -6.851949953256283E-003  2.895443467178195E-003  0.599025562316464     
 -6.733135613945838E-003  2.907209586684170E-003  0.272498107875232     
 -6.688178065695746E-003  3.027695693475161E-003  0.829990245107565     
 -6.620302370865515E-003  2.921858425558015E-003  0.797981397771913     
 -6.505805841798983E-003  2.937076746462784E-003  0.740828323612621     
 -6.464626994202780E-003  3.056786892181397E-003  0.806650804063500     
 -6.395088013386339E-003  2.951519106295175E-003  0.544709845672261     
 -6.284678673734764E-003  2.967678218038664E-003  0.357144997158161     
 -6.245266876580614E-003  3.085399978744697E-003  0.569395464810460     
 -6.176036384525242E-003  2.981848944769574E-003  0.482259997615748     
 -6.068699674699600E-003  2.998010497567051E-003  4.044336203762852E-002
 -6.030026021281385E-003  3.113474867616767E-003  0.230020398857362     
 -5.962101108609895E-003  3.011914659708211E-003  0.376076736577328     
 -5.856789317012609E-003  3.027745910085603E-003  4.363970175119222E-002
 -5.818831981872130E-003  3.141021914538781E-003  7.782164097761843E-002
 -5.752193843693061E-003  3.041388794866457E-003  0.228546162822337     
 -5.648846397085176E-003  3.056927855148244E-003  5.163784026400031E-002
 -5.611605749988872E-003  3.168051421303841E-003  1.893899924842120E-002