TITLE = "Visualization of the solution"
VARIABLES = "x","y","Density","Momentum_x","Momentum_y","Energy","Pressure","Temperature","Pressure_Coefficient","Mach"
ZONE NODES= 3194, ELEMENTS= 5938, DATAPACKING=POINT, ZONETYPE=FEQUADRILATERAL
0.000000e+00	3.900000e-03	2.872682e+00	8.628349e+02	1.471556e+02	3.634921e+06	6.882590e+04	4.765227e+02	-1.835965e+18	1.965478e+00	
0.000000e+00	3.913186e-03	2.141967e+00	1.444624e+02	-4.823371e+01	2.565146e+06	5.050626e+04	4.670990e+02	-1.926337e+18	4.614848e-01	
0.000000e+00	3.926372e-03	2.923471e+00	-2.714538e+00	-2.231732e+02	3.396181e+06	6.642609e+04	4.530459e+02	-1.847803e+18	5.063062e-01	
0.000000e+00	3.939557e-03	3.050289e+00	-3.348626e+00	-1.999527e+02	3.515464e+06	6.872164e+04	4.497724e+02	-1.836479e+18	4.369019e-01	
0.000000e+00	3.952743e-03	3.100491e+00	-1.556323e+00	-1.747296e+02	3.560713e+06	6.960583e+04	4.484103e+02	-1.832117e+18	3.763252e-01	
0.000000e+00	3.965929e-03	3.114555e+00	-7.752774e-01	-1.602083e+02	3.577265e+06	6.993986e+04	4.485659e+02	-1.830469e+18	3.434508e-01	
0.000000e+00	3.979115e-03	3.116332e+00	-4.760315e-01	-1.517354e+02	3.582633e+06	7.005587e+04	4.490367e+02	-1.829897e+18	3.249165e-01	
0.000000e+00	3.992300e-03	3.119545e+00	-3.463428e-01	-1.468127e+02	3.588516e+06	7.017638e+04	4.493415e+02	-1.829303e+18	3.139412e-01	
0.000000e+00	4.005486e-03	3.123431e+00	-4.006917e-01	-1.431970e+02	3.593879e+06	7.028383e+04	4.494758e+02	-1.828772e+18	3.057870e-01	
0.000000e+00	4.018672e-03	3.127998e+00	-2.648875e-01	-1.401985e+02	3.599670e+06	7.039835e+04	4.495614e+02	-1.828208e+18	2.989247e-01	
0.000000e+00	4.031858e-03	3.130794e+00	-2.950171e-01	-1.376446e+02	3.603514e+06	7.047519e+04	4.496548e+02	-1.827828e+18	2.931897e-01	
0.000000e+00	4.045043e-03	3.134244e+00	-1.978834e-01	-1.355442e+02	3.608093e+06	7.056566e+04	4.497433e+02	-1.827382e+18	2.883736e-01	
0.000000e+00	4.058229e-03	3.137109e+00	-2.125858e-01	-1.336814e+02	3.611828e+06	7.063946e+04	4.498086e+02	-1.827018e+18	2.841337e-01	
0.000000e+00	4.078446e-03	3.140652e+00	-1.353424e-01	-1.312382e+02	3.616495e+06	7.073181e+04	4.498958e+02	-1.826563e+18	2.786031e-01	
0.000000e+00	4.102180e-03	3.143383e+00	-1.591503e-01	-1.286577e+02	3.620235e+06	7.080648e+04	4.499840e+02	-1.826194e+18	2.728638e-01	
0.000000e+00	4.125914e-03	3.146513e+00	-1.047651e-01	-1.263185e+02	3.624277e+06	7.088646e+04	4.500512e+02	-1.825800e+18	2.676202e-01	
0.000000e+00	4.149649e-03	3.149099e+00	-1.280923e-01	-1.241453e+02	3.627469e+06	7.094969e+04	4.500892e+02	-1.825488e+18	2.627925e-01	
0.000000e+00	4.173383e-03	3.152131e+00	-8.100704e-02	-1.221874e+02	3.631027e+06	7.101952e+04	4.501077e+02	-1.825143e+18	2.583988e-01	
0.000000e+00	4.197118e-03	3.154665e+00	-9.926555e-02	-1.204118e+02	3.633941e+06	7.107675e+04	4.501163e+02	-1.824861e+18	2.544411e-01	
0.000000e+00	4.220852e-03	3.157580e+00	-6.676833e-02	-1.188097e+02	3.637300e+06	7.114235e+04	4.501248e+02	-1.824537e+18	2.508264e-01	
0.000000e+00	4.252872e-03	3.160516e+00	-8.252458e-02	-1.168125e+02	3.640692e+06	7.120888e+04	4.501362e+02	-1.824209e+18	2.463825e-01	
0.000000e+00	4.286778e-03	3.163806e+00	-5.457602e-02	-1.148909e+02	3.644462e+06	7.128253e+04	4.501435e+02	-1.823846e+18	2.420808e-01	
0.000000e+00	4.320685e-03	3.166832e+00	-6.930670e-02	-1.130856e+02	3.647837e+06	7.134836e+04	4.501388e+02	-1.823521e+18	2.380558e-01	
0.000000e+00	4.354591e-03	3.170168e+00	-4.924249e-02	-1.113567e+02	3.651526e+06	7.142007e+04	4.501283e+02	-1.823167e+18	2.341780e-01	
0.000000e+00	4.388680e-03	3.173394e+00	-3.591921e-02	-1.096344e+02	3.655108e+06	7.148973e+04	4.501201e+02	-1.822824e+18	2.303292e-01	
0.000000e+00	4.432633e-03	3.176818e+00	-5.472312e-02	-1.074741e+02	3.658927e+06	7.156422e+04	4.501148e+02	-1.822456e+18	2.255542e-01	
0.000000e+00	4.476585e-03	3.180329e+00	-3.823440e-02	-1.054568e+02	3.662832e+06	7.164021e+04	4.501071e+02	-1.822081e+18	2.210836e-01	
0.000000e+00	4.520538e-03	3.183468e+00	-5.575612e-02	-1.035543e+02	3.666274e+06	7.170717e+04	4.500944e+02	-1.821751e+18	2.168892e-01	
0.000000e+00	4.567669e-03	3.186845e+00	-3.870320e-02	-1.016240e+02	3.669983e+06	7.177923e+04	4.500809e+02	-1.821396e+18	2.126293e-01	
0.000000e+00	4.621611e-03	3.190247e+00	-2.801370e-02	-9.954121e+01	3.673701e+06	7.185149e+04	4.500652e+02	-1.821039e+18	2.080582e-01	
0.000000e+00	4.675552e-03	3.193368e+00	-3.775073e-02	-9.759073e+01	3.677075e+06	7.191703e+04	4.500466e+02	-1.820716e+18	2.037911e-01	
0.000000e+00	4.732515e-03	3.196563e+00	-2.513721e-02	-9.565783e+01	3.680543e+06	7.198433e+04	4.500287e+02	-1.820384e+18	1.995639e-01	
0.000000e+00	4.796415e-03	3.199626e+00	-3.735871e-02	-9.361832e+01	3.683866e+06	7.204891e+04	4.500120e+02	-1.820065e+18	1.951302e-01	
0.000000e+00	4.860315e-03	3.202687e+00	-2.602056e-02	-9.169781e+01	3.687236e+06	7.211435e+04	4.500006e+02	-1.819742e+18	1.909513e-01	
0.000000e+00	4.931754e-03	3.205574e+00	-3.314319e-02	-8.965617e+01	3.690432e+06	7.217654e+04	4.499928e+02	-1.819436e+18	1.865372e-01	
0.000000e+00	5.005594e-03	3.208440e+00	-2.156482e-02	-8.767856e+01	3.693624e+06	7.223861e+04	4.499871e+02	-1.819129e+18	1.822646e-01	
0.000000e+00	5.084953e-03	3.211135e+00	-2.721708e-02	-8.568839e+01	3.696611e+06	7.229670e+04	4.499801e+02	-1.818843e+18	1.779828e-01	
0.000000e+00	5.168722e-03	3.213869e+00	-1.801035e-02	-8.371965e+01	3.699646e+06	7.235571e+04	4.499734e+02	-1.818552e+18	1.737503e-01	
0.000000e+00	5.258586e-03	3.216549e+00	-1.316235e-02	-8.171655e+01	3.702633e+06	7.241379e+04	4.499684e+02	-1.818265e+18	1.694561e-01	
0.000000e+00	5.352275e-03	3.219078e+00	-1.993627e-02	-7.971673e+01	3.705473e+06	7.246906e+04	4.499662e+02	-1.817993e+18	1.651825e-01	
0.000000e+00	5.454675e-03	3.221677e+00	-1.427436e-02	-7.762888e+01	3.708414e+06	7.252632e+04	4.499669e+02	-1.817710e+18	1.607292e-01	
0.000000e+00	5.561340e-03	3.224085e+00	-2.268839e-02	-7.555532e+01	3.711144e+06	7.257951e+04	4.499683e+02	-1.817448e+18	1.563215e-01	
0.000000e+00	5.674852e-03	3.226542e+00	-1.616210e-02	-7.346062e+01	3.713932e+06	7.263379e+04	4.499698e+02	-1.817180e+18	1.518742e-01	
0.000000e+00	5.797045e-03	3.228868e+00	-2.146734e-02	-7.132207e+01	3.716561e+06	7.268500e+04	4.499703e+02	-1.816927e+18	1.473490e-01	
0.000000e+00	5.925997e-03	3.231206e+00	-1.418773e-02	-6.919428e+01	3.719196e+06	7.273629e+04	4.499695e+02	-1.816674e+18	1.428521e-01	
0.000000e+00	6.062675e-03	3.233394e+00	-1.919912e-02	-6.706899e+01	3.721644e+06	7.278393e+04	4.499667e+02	-1.816439e+18	1.383733e-01	
0.000000e+00	6.207913e-03	3.235606e+00	-1.271385e-02	-6.494360e+01	3.724111e+06	7.283189e+04	4.499628e+02	-1.816203e+18	1.338994e-01	
0.000000e+00	6.362438e-03	3.237664e+00	-1.789891e-02	-6.280943e+01	3.726399e+06	7.287643e+04	4.499587e+02	-1.815983e+18	1.294194e-01	
0.000000e+00	6.526885e-03	3.239716e+00	-1.189287e-02	-6.067073e+01	3.728694e+06	7.292106e+04	4.499558e+02	-1.815763e+18	1.249357e-01	
0.000000e+00	6.701819e-03	3.241592e+00	-1.678295e-02	-5.853156e+01	3.730797e+06	7.296202e+04	4.499542e+02	-1.815561e+18	1.204627e-01	
0.000000e+00	6.887743e-03	3.243443e+00	-1.068086e-02	-5.640419e+01	3.732886e+06	7.300268e+04	4.499540e+02	-1.815360e+18	1.160196e-01	
0.000000e+00	7.085108e-03	3.245177e+00	-6.951086e-03	-5.429335e+01	3.734848e+06	7.304090e+04	4.499546e+02	-1.815172e+18	1.116194e-01	
0.000000e+00	7.294321e-03	3.246762e+00	-1.194107e-02	-5.220355e+01	3.736643e+06	7.307589e+04	4.499555e+02	-1.814999e+18	1.072717e-01	
0.000000e+00	7.517440e-03	3.248327e+00	-7.388357e-03	-5.012726e+01	3.738421e+06	7.311053e+04	4.499569e+02	-1.814828e+18	1.029565e-01	
0.000000e+00	7.754390e-03	3.249731e+00	-1.326722e-02	-4.807429e+01	3.740013e+06	7.314158e+04	4.499580e+02	-1.814675e+18	9.869810e-02	
0.000000e+00	8.006008e-03	3.251122e+00	-8.503263e-03	-4.605024e+01	3.741595e+06	7.317240e+04	4.499594e+02	-1.814523e+18	9.450297e-02	
0.000000e+00	8.273257e-03	3.252416e+00	-5.357793e-03	-4.405557e+01	3.743066e+06	7.320109e+04	4.499608e+02	-1.814381e+18	9.037424e-02	
0.000000e+00	8.557913e-03	3.253580e+00	-9.851442e-03	-4.208758e+01	3.744390e+06	7.322692e+04	4.499623e+02	-1.814254e+18	8.630684e-02	
0.000000e+00	8.860062e-03	3.254722e+00	-5.406452e-03	-4.015689e+01	3.745695e+06	7.325236e+04	4.499642e+02	-1.814128e+18	8.231923e-02	
0.000000e+00	9.181107e-03	3.255761e+00	-4.105890e-03	-3.826252e+01	3.746884e+06	7.327555e+04	4.499663e+02	-1.814014e+18	7.841124e-02	
0.000000e+00	9.522282e-03	3.256681e+00	-8.940720e-03	-3.640757e+01	3.747940e+06	7.329616e+04	4.499686e+02	-1.813912e+18	7.458907e-02	
0.000000e+00	9.884684e-03	3.257587e+00	-5.722120e-03	-3.459636e+01	3.748983e+06	7.331652e+04	4.499712e+02	-1.813812e+18	7.085892e-02	
0.000000e+00	1.026997e-02	3.258411e+00	-4.488178e-03	-3.282898e+01	3.749934e+06	7.333507e+04	4.499738e+02	-1.813720e+18	6.722220e-02	
0.000000e+00	1.067962e-02	3.259136e+00	-8.347705e-03	-3.110915e+01	3.750770e+06	7.335141e+04	4.499761e+02	-1.813640e+18	6.368657e-02	
0.000000e+00	1.111481e-02	3.259851e+00	-4.690116e-03	-2.944332e+01	3.751595e+06	7.336751e+04	4.499785e+02	-1.813560e+18	6.026322e-02	
0.000000e+00	1.157716e-02	3.260485e+00	-3.591030e-03	-2.783557e+01	3.752327e+06	7.338180e+04	4.499805e+02	-1.813490e+18	5.696157e-02	
0.000000e+00	1.206864e-02	3.261030e+00	-7.050888e-03	-2.629006e+01	3.752955e+06	7.339407e+04	4.499822e+02	-1.813429e+18	5.379000e-02	
0.000000e+00	1.259103e-02	3.261565e+00	-4.060269e-03	-2.481182e+01	3.753573e+06	7.340611e+04	4.499839e+02	-1.813370e+18	5.075726e-02	
0.000000e+00	1.314588e-02	3.262033e+00	-3.061506e-03	-2.340484e+01	3.754112e+06	7.341663e+04	4.499853e+02	-1.813318e+18	4.787222e-02	
0.000000e+00	1.373588e-02	3.262427e+00	-5.467146e-03	-2.207117e+01	3.754566e+06	7.342550e+04	4.499864e+02	-1.813274e+18	4.513893e-02	
0.000000e+00	1.436265e-02	3.262808e+00	-3.256333e-03	-2.081516e+01	3.755005e+06	7.343407e+04	4.499876e+02	-1.813232e+18	4.256528e-02	
0.000000e+00	1.502880e-02	3.263135e+00	-2.378245e-03	-1.963823e+01	3.755382e+06	7.344143e+04	4.499887e+02	-1.813196e+18	4.015458e-02	
0.000000e+00	1.573659e-02	3.263410e+00	-3.468917e-03	-1.854249e+01	3.755700e+06	7.344765e+04	4.499896e+02	-1.813165e+18	3.791093e-02	
0.000000e+00	1.648894e-02	3.263674e+00	-1.918593e-03	-1.752820e+01	3.756007e+06	7.345363e+04	4.499906e+02	-1.813136e+18	3.583429e-02	
0.000000e+00	1.728835e-02	3.263903e+00	-7.990993e-04	-1.659703e+01	3.756274e+06	7.345883e+04	4.499916e+02	-1.813110e+18	3.392825e-02	
0.000000e+00	1.813794e-02	3.264118e+00	-8.654309e-04	-1.573978e+01	3.756525e+06	7.346373e+04	4.499927e+02	-1.813086e+18	3.217372e-02	
0.000000e+00	1.904063e-02	3.264148e+00	-1.766836e-03	-1.496271e+01	3.756559e+06	7.346446e+04	4.499931e+02	-1.813082e+18	3.058504e-02	
0.000000e+00	2.000000e-02	3.264346e+00	-2.871171e-02	-1.415181e+01	3.756791e+06	7.346896e+04	4.499940e+02	-1.813060e+18	2.892580e-02	
1.000000e-05	3.900000e-03	3.109954e+00	8.650754e+02	1.607174e+02	3.925756e+06	7.461877e+04	4.778724e+02	-1.807388e+18	1.824874e+00	
1.007371e-05	3.913186e-03	2.725479e+00	2.625565e+02	-5.649826e-01	3.284194e+06	6.432445e+04	4.692543e+02	-1.858171e+18	6.260179e-01	
1.014742e-05	3.926372e-03	3.071037e+00	1.563634e+01	-1.712455e+02	3.579896e+06	7.004566e+04	4.551541e+02	-1.829947e+18	3.707780e-01	
1.022113e-05	3.939557e-03	3.059219e+00	-1.588223e+01	-1.738118e+02	3.527061e+06	6.897801e+04	4.501438e+02	-1.835214e+18	3.800510e-01	
1.029484e-05	3.952743e-03	3.090934e+00	-1.317859e+01	-1.657812e+02	3.550255e+06	6.941537e+04	4.485291e+02	-1.833057e+18	3.591957e-01	
1.036855e-05	3.965929e-03	3.110700e+00	-7.725901e+00	-1.577997e+02	3.571589e+06	6.983171e+04	4.484216e+02	-1.831003e+18	3.391589e-01	
1.044226e-05	3.979115e-03	3.117342e+00	-4.128352e+00	-1.515182e+02	3.582523e+06	7.005225e+04	4.488788e+02	-1.829915e+18	3.245298e-01	
1.051596e-05	3.992300e-03	3.121795e+00	-2.689571e+00	-1.473055e+02	3.589707e+06	7.019689e+04	4.491648e+02	-1.829201e+18	3.148923e-01	
1.058967e-05	4.005486e-03	3.127214e+00	-2.138210e+00	-1.441571e+02	3.596552e+06	7.033194e+04	4.492620e+02	-1.828535e+18	3.075860e-01	
1.066338e-05	4.018672e-03	3.131084e+00	-1.826699e+00	-1.413908e+02	3.601308e+06	7.042612e+04	4.493173e+02	-1.828071e+18	3.012904e-01	
1.073709e-05	4.031858e-03	3.134578e+00	-1.461680e+00	-1.389981e+02	3.605894e+06	7.051697e+04	4.494028e+02	-1.827622e+18	2.958298e-01	
1.081080e-05	4.045043e-03	3.137177e+00	-1.236811e+00	-1.369003e+02	3.609511e+06	7.058903e+04	4.494932e+02	-1.827267e+18	2.910926e-01	
1.088451e-05	4.058229e-03	3.140099e+00	-1.053013e+00	-1.350879e+02	3.613360e+06	7.066506e+04	4.495647e+02	-1.826892e+18	2.869495e-01	
1.099752e-05	4.078446e-03	3.142864e+00	-9.186863e-01	-1.326818e+02	3.617217e+06	7.074198e+04	4.496624e+02	-1.826512e+18	2.815606e-01	
1.113020e-05	4.102180e-03	3.145771e+00	-8.002669e-01	-1.301720e+02	3.621343e+06	7.082424e+04	4.497732e+02	-1.826107e+18	2.759463e-01	
1.126288e-05	4.125914e-03	3.148243e+00	-7.555491e-01	-1.278531e+02	3.624783e+06	7.089289e+04	4.498595e+02	-1.825768e+18	2.707935e-01	
1.139555e-05	4.149649e-03	3.151015e+00	-6.775010e-01	-1.257040e+02	3.628345e+06	7.096343e+04	4.499172e+02	-1.825420e+18	2.659932e-01	
1.152823e-05	4.173383e-03	3.153572e+00	-6.179659e-01	-1.236812e+02	3.631481e+06	7.102542e+04	4.499517e+02	-1.825114e+18	2.614939e-01	
1.166091e-05	4.197118e-03	3.156303e+00	-5.189666e-01	-1.218299e+02	3.634749e+06	7.108968e+04	4.499766e+02	-1.824797e+18	2.573530e-01	
1.179358e-05	4.220852e-03	3.158846e+00	-4.740129e-01	-1.201280e+02	3.637753e+06	7.114867e+04	4.499949e+02	-1.824506e+18	2.535522e-01	
1.197258e-05	4.252872e-03	3.161938e+00	-4.020305e-01	-1.180214e+02	3.641440e+06	7.122111e+04	4.500212e+02	-1.824149e+18	2.488590e-01	
1.216212e-05	4.286778e-03	3.164866e+00	-3.706799e-01	-1.159568e+02	3.644903e+06	7.128913e+04	4.500428e+02	-1.823813e+18	2.442779e-01	
1.235165e-05	4.320685e-03	3.167968e+00	-3.381964e-01	-1.140322e+02	3.648471e+06	7.135890e+04	4.500518e+02	-1.823469e+18	2.399907e-01	
1.254119e-05	4.354591e-03	3.170997e+00	-3.446048e-01	-1.121943e+02	3.651882e+06	7.142547e+04	4.500512e+02	-1.823141e+18	2.359023e-01	
1.273175e-05	4.388680e-03	3.174033e+00	-3.557534e-01	-1.103952e+02	3.655302e+06	7.149218e+04	4.500505e+02	-1.822812e+18	2.319027e-01	
1.297745e-05	4.432633e-03	3.177677e+00	-3.163378e-01	-1.081614e+02	3.659447e+06	7.157306e+04	4.500545e+02	-1.822413e+18	2.269542e-01	
1.322315e-05	4.476585e-03	3.180980e+00	-2.906981e-01	-1.060561e+02	3.663178e+06	7.164589e+04	4.500552e+02	-1.822053e+18	2.223104e-01	
1.346885e-05	4.520538e-03	3.184193e+00	-2.648087e-01	-1.040868e+02	3.666781e+06	7.171609e+04	4.500523e+02	-1.821707e+18	2.179679e-01	
1.373231e-05	4.567669e-03	3.187295e+00	-2.611828e-01	-1.020852e+02	3.670234e+06	7.178337e+04	4.500464e+02	-1.821375e+18	2.135744e-01	
1.403385e-05	4.621611e-03	3.190590e+00	-2.376129e-01	-9.994032e+01	3.673887e+06	7.185452e+04	4.500383e+02	-1.821024e+18	2.088779e-01	
1.433539e-05	4.675552e-03	3.193803e+00	-2.097993e-01	-9.794354e+01	3.677421e+06	7.192321e+04	4.500263e+02	-1.820685e+18	2.045061e-01	
1.465381e-05	4.732515e-03	3.196843e+00	-1.952717e-01	-9.596098e+01	3.680744e+06	7.198782e+04	4.500128e+02	-1.820367e+18	2.001835e-01	
1.501102e-05	4.796415e-03	3.199998e+00	-1.711659e-01	-9.388042e+01	3.684205e+06	7.205511e+04	4.500002e+02	-1.820035e+18	1.956574e-01	
1.536822e-05	4.860315e-03	3.202887e+00	-1.711665e-01	-9.192288e+01	3.687392e+06	7.211709e+04	4.499908e+02	-1.819729e+18	1.914109e-01	
1.576757e-05	4.931754e-03	3.205839e+00	-1.554047e-01	-8.985738e+01	3.690679e+06	7.218107e+04	4.499851e+02	-1.819413e+18	1.869427e-01	
1.618034e-05	5.005594e-03	3.208583e+00	-1.454006e-01	-8.785405e+01	3.693742e+06	7.224069e+04	4.499807e+02	-1.819119e+18	1.826231e-01	
1.662396e-05	5.084953e-03	3.211346e+00	-1.269789e-01	-8.584440e+01	3.696819e+06	7.230056e+04	4.499754e+02	-1.818824e+18	1.782966e-01	
1.709223e-05	5.168722e-03	3.213983e+00	-1.214251e-01	-8.385237e+01	3.699749e+06	7.235756e+04	4.499695e+02	-1.818543e+18	1.740207e-01	
1.759458e-05	5.258586e-03	3.216633e+00	-1.172004e-01	-8.183029e+01	3.702702e+06	7.241502e+04	4.499646e+02	-1.818259e+18	1.696885e-01	
1.811831e-05	5.352275e-03	3.219243e+00	-1.115439e-01	-7.981769e+01	3.705635e+06	7.247208e+04	4.499627e+02	-1.817978e+18	1.653843e-01	
1.869073e-05	5.454675e-03	3.221788e+00	-1.098920e-01	-7.771349e+01	3.708514e+06	7.252815e+04	4.499633e+02	-1.817701e+18	1.608999e-01	
1.928699e-05	5.561340e-03	3.224261e+00	-1.047502e-01	-7.562765e+01	3.711321e+06	7.258283e+04	4.499650e+02	-1.817431e+18	1.564636e-01	
1.992153e-05	5.674852e-03	3.226629e+00	-1.071871e-01	-7.351903e+01	3.714008e+06	7.263518e+04	4.499667e+02	-1.817173e+18	1.519917e-01	
2.060460e-05	5.797045e-03	3.229006e+00	-1.011457e-01	-7.137115e+01	3.716703e+06	7.268767e+04	4.499680e+02	-1.816914e+18	1.474448e-01	
2.132545e-05	5.925997e-03	3.231266e+00	-1.001291e-01	-6.923120e+01	3.719252e+06	7.273732e+04	4.499679e+02	-1.816669e+18	1.429262e-01	
2.208949e-05	6.062675e-03	3.233508e+00	-9.263811e-02	-6.709754e+01	3.721770e+06	7.278631e+04	4.499661e+02	-1.816428e+18	1.384277e-01	
2.290138e-05	6.207913e-03	3.235648e+00	-9.270046e-02	-6.496236e+01	3.724158e+06	7.283279e+04	4.499627e+02	-1.816198e+18	1.339366e-01	
2.376518e-05	6.362438e-03	3.237758e+00	-8.788272e-02	-6.282275e+01	3.726512e+06	7.287858e+04	4.499592e+02	-1.815972e+18	1.294433e-01	
2.468445e-05	6.526885e-03	3.239744e+00	-8.897245e-02	-6.067750e+01	3.728730e+06	7.292176e+04	4.499564e+02	-1.815759e+18	1.249486e-01	
2.566234e-05	6.701819e-03	3.241672e+00	-8.360744e-02	-5.853528e+01	3.730896e+06	7.296391e+04	4.499550e+02	-1.815551e+18	1.204674e-01	
2.670167e-05	6.887743e-03	3.243459e+00	-8.374031e-02	-5.640326e+01	3.732910e+06	7.300315e+04	4.499546e+02	-1.815358e+18	1.160172e-01	
2.780495e-05	7.085108e-03	3.245170e+00	-8.134061e-02	-5.428995e+01	3.734844e+06	7.304084e+04	4.499552e+02	-1.815172e+18	1.116127e-01	
2.897446e-05	7.294321e-03	3.246815e+00	-7.530934e-02	-5.220017e+01	3.736711e+06	7.307720e+04	4.499563e+02	-1.814993e+18	1.072631e-01	
3.022171e-05	7.517440e-03	3.248339e+00	-7.405978e-02	-5.012231e+01	3.738440e+06	7.311091e+04	4.499576e+02	-1.814826e+18	1.029460e-01	
3.154628e-05	7.754390e-03	3.249793e+00	-7.014902e-02	-4.806930e+01	3.740091e+06	7.314309e+04	4.499589e+02	-1.814667e+18	9.868603e-02	
3.295284e-05	8.006008e-03	3.251126e+00	-7.171702e-02	-4.604375e+01	3.741604e+06	7.317260e+04	4.499601e+02	-1.814522e+18	9.448957e-02	
3.444678e-05	8.273257e-03	3.252398e+00	-7.044507e-02	-4.404916e+01	3.743050e+06	7.320079e+04	4.499615e+02	-1.814383e+18	9.036164e-02	
3.603803e-05	8.557913e-03	3.253612e+00	-6.590674e-02	-4.208282e+01	3.744434e+06	7.322775e+04	4.499631e+02	-1.814250e+18	8.629627e-02	
3.772706e-05	8.860062e-03	3.254719e+00	-6.502514e-02	-4.015242e+01	3.745696e+06	7.325238e+04	4.499648e+02	-1.814128e+18	8.231021e-02	
3.952172e-05	9.181107e-03	3.255747e+00	-6.367330e-02	-3.825871e+01	3.746873e+06	7.327533e+04	4.499668e+02	-1.814015e+18	7.840380e-02	
4.142891e-05	9.522282e-03	3.256719e+00	-5.965750e-02	-3.640529e+01	3.747988e+06	7.329708e+04	4.499692e+02	-1.813908e+18	7.458362e-02	
4.345475e-05	9.884684e-03	3.257593e+00	-5.939889e-02	-3.459424e+01	3.748993e+06	7.331671e+04	4.499716e+02	-1.813811e+18	7.085452e-02	
4.560853e-05	1.026997e-02	3.258404e+00	-5.856924e-02	-3.282697e+01	3.749927e+06	7.333495e+04	4.499741e+02	-1.813721e+18	6.721833e-02	
4.789848e-05	1.067962e-02	3.259172e+00	-5.444519e-02	-3.110787e+01	3.750814e+06	7.335226e+04	4.499765e+02	-1.813636e+18	6.368333e-02	
5.033125e-05	1.111481e-02	3.259856e+00	-5.300610e-02	-2.944156e+01	3.751603e+06	7.336766e+04	4.499787e+02	-1.813560e+18	6.025960e-02	
5.291578e-05	1.157716e-02	3.260481e+00	-5.065222e-02	-2.783319e+01	3.752325e+06	7.338175e+04	4.499807e+02	-1.813490e+18	5.695683e-02	
5.566320e-05	1.206864e-02	3.261066e+00	-4.554073e-02	-2.628747e+01	3.752999e+06	7.339491e+04	4.499825e+02	-1.813425e+18	5.378419e-02	
5.858337e-05	1.259103e-02	3.261574e+00	-4.307732e-02	-2.480815e+01	3.753585e+06	7.340634e+04	4.499840e+02	-1.813369e+18	5.074967e-02	
6.168504e-05	1.314588e-02	3.262033e+00	-3.977647e-02	-2.340005e+01	3.754114e+06	7.341667e+04	4.499854e+02	-1.813318e+18	4.786248e-02	
6.498317e-05	1.373588e-02	3.262457e+00	-3.416175e-02	-2.206559e+01	3.754602e+06	7.342620e+04	4.499866e+02	-1.813271e+18	4.512716e-02	
6.848689e-05	1.436265e-02	3.262818e+00	-3.056694e-02	-2.080803e+01	3.755017e+06	7.343431e+04	4.499877e+02	-1.813231e+18	4.255062e-02	
7.221066e-05	1.502880e-02	3.263139e+00	-2.615887e-02	-1.962915e+01	3.755387e+06	7.344153e+04	4.499888e+02	-1.813195e+18	4.013600e-02	
7.616730e-05	1.573659e-02	3.263432e+00	-2.001798e-02	-1.853122e+01	3.755727e+06	7.344816e+04	4.499898e+02	-1.813163e+18	3.788764e-02	
8.037295e-05	1.648894e-02	3.263686e+00	-1.501872e-02	-1.751343e+01	3.756021e+06	7.345389e+04	4.499907e+02	-1.813134e+18	3.580398e-02	
8.484172e-05	1.728835e-02	3.263903e+00	-1.040963e-02	-1.657753e+01	3.756273e+06	7.345882e+04	4.499917e+02	-1.813110e+18	3.388842e-02	
8.959097e-05	1.813794e-02	3.264114e+00	-5.635941e-03	-1.571669e+01	3.756521e+06	7.346365e+04	4.499927e+02	-1.813086e+18	3.212657e-02	
9.463707e-05	1.904063e-02	3.264175e+00	-9.260473e-04	-1.493891e+01	3.756591e+06	7.346508e+04	4.499933e+02	-1.813079e+18	3.053612e-02	
1.000000e-04	2.000000e-02	3.264714e+00	1.939833e-02	-1.412329e+01	3.757223e+06	7.347724e+04	4.499950e+02	-1.813019e+18	2.886425e-02	
7.755670e-02	1.955670e-02	3.264926e+00	2.244863e-01	-8.504466e-01	3.758407e+06	7.350182e+04	4.501112e+02	-1.812898e+18	1.797248e-03	
-2.030609e-02	5.931043e-03	1.919791e+01	3.256492e+02	-1.365030e+02	2.445596e+07	4.407000e+05	5.000002e+02	-1.479709e+15	1.266036e-01	
7.051078e-03	1.053002e-02	3.261024e+00	-8.753981e+00	-2.679349e+01	3.752245e+06	7.337919e+04	4.498961e+02	-1.813503e+18	5.767793e-02	
6.981479e-03	9.878010e-03	3.259836e+00	-9.761304e+00	-2.916798e+01	3.750603e+06	7.334693e+04	4.498602e+02	-1.813662e+18	6.296339e-02	
7.369998e-03	9.187811e-03	3.259592e+00	-1.035500e+01	-3.030245e+01	3.750265e+06	7.334013e+04	4.498518e+02	-1.813695e+18	6.555816e-02	
6.729450e-03	9.438411e-03	3.258914e+00	-1.015012e+01	-3.145411e+01	3.749365e+06	7.332254e+04	4.498360e+02	-1.813782e+18	6.767855e-02	
6.582641e-03	8.987649e-03	3.257924e+00	-1.041159e+01	-3.361314e+01	3.748137e+06	7.329850e+04	4.498226e+02	-1.813901e+18	7.207791e-02	
7.947800e-03	1.002344e-02	3.261234e+00	-9.851752e+00	-2.632298e+01	3.752295e+06	7.337990e+04	4.498734e+02	-1.813499e+18	5.750992e-02	
8.824590e-03	9.698329e-03	3.262251e+00	-9.779684e+00	-2.503379e+01	3.753648e+06	7.340622e+04	4.498965e+02	-1.813369e+18	5.497501e-02	
3.881827e-03	5.768599e-03	3.217926e+00	4.330276e+01	-4.163771e+01	3.726031e+06	7.290116e+04	4.526733e+02	-1.815861e+18	1.241137e-01	
4.215250e-03	6.237521e-03	3.238549e+00	1.098441e+01	-4.892650e+01	3.733918e+06	7.303374e+04	4.507691e+02	-1.815207e+18	1.031933e-01	
5.101837e-03	6.701485e-03	3.248364e+00	5.422542e+00	-4.592670e+01	3.742585e+06	7.319706e+04	4.504592e+02	-1.814401e+18	9.492491e-02	
5.863947e-03	7.809711e-03	3.255866e+00	-8.605974e+00	-4.115761e+01	3.746848e+06	7.327368e+04	4.499420e+02	-1.814023e+18	8.616809e-02	
6.746791e-03	1.208435e-02	3.262411e+00	-5.489222e+00	-2.257077e+01	3.754339e+06	7.342072e+04	4.499606e+02	-1.813298e+18	4.750793e-02	
6.766679e-03	1.130415e-02	3.261961e+00	-6.978484e+00	-2.474628e+01	3.753633e+06	7.340658e+04	4.499358e+02	-1.813368e+18	5.259441e-02	
6.364867e-03	1.027787e-02	3.260340e+00	-8.534725e+00	-2.899005e+01	3.751503e+06	7.336468e+04	4.498991e+02	-1.813574e+18	6.185034e-02	
6.267155e-03	9.777845e-03	3.259308e+00	-9.293106e+00	-3.125273e+01	3.750085e+06	7.333677e+04	4.498686e+02	-1.813712e+18	6.675447e-02	
6.361014e-03	1.077481e-02	3.261179e+00	-7.596318e+00	-2.707434e+01	3.752667e+06	7.338761e+04	4.499254e+02	-1.813461e+18	5.753514e-02	
5.980861e-03	9.002990e-03	3.257592e+00	-1.010775e+01	-3.540935e+01	3.747762e+06	7.329095e+04	4.498212e+02	-1.813938e+18	7.543468e-02	
7.012704e-03	8.329437e-03	3.257814e+00	-9.507114e+00	-3.424880e+01	3.748861e+06	7.331345e+04	4.499242e+02	-1.813827e+18	7.279877e-02	
8.346277e-03	9.116980e-03	3.261170e+00	-9.805659e+00	-2.749673e+01	3.752431e+06	7.338258e+04	4.498972e+02	-1.813486e+18	5.973283e-02	
6.125665e-03	9.366402e-03	3.258408e+00	-9.804154e+00	-3.338182e+01	3.748833e+06	7.331207e+04	4.498399e+02	-1.813834e+18	7.125305e-02	
7.815396e-03	1.095698e-02	3.262117e+00	-8.366946e+00	-2.415062e+01	3.753565e+06	7.340495e+04	4.499063e+02	-1.813376e+18	5.228189e-02	
6.459070e-03	7.917199e-03	3.256060e+00	-8.397560e+00	-3.804953e+01	3.747385e+06	7.328517e+04	4.499842e+02	-1.813967e+18	7.984229e-02	
6.088487e-03	8.486128e-03	3.256205e+00	-1.026051e+01	-3.733637e+01	3.746306e+06	7.326286e+04	4.498351e+02	-1.814077e+18	7.935206e-02	
9.644229e-03	9.730495e-03	3.262378e+00	-9.220714e+00	-2.335317e+01	3.754133e+06	7.341626e+04	4.499388e+02	-1.813320e+18	5.135267e-02	
3.800893e-04	3.759577e-03	3.229104e+00	9.130630e+02	1.549306e+02	4.115717e+06	7.815927e+04	4.822399e+02	-1.789922e+18	1.842083e+00	
5.095471e-04	3.750422e-03	3.155545e+00	8.947870e+02	1.543157e+02	4.022635e+06	7.640813e+04	4.822078e+02	-1.798561e+18	1.847405e+00	
5.331419e-04	3.651152e-03	3.242633e+00	9.199273e+02	1.435395e+02	4.130450e+06	7.842282e+04	4.819027e+02	-1.788622e+18	1.845042e+00	
5.689102e-04	3.582112e-03	3.301987e+00	9.336332e+02	1.347356e+02	4.203588e+06	7.980797e+04	4.817811e+02	-1.781789e+18	1.836612e+00	
6.885553e-04	3.681933e-03	3.132307e+00	8.954659e+02	1.494556e+02	3.992373e+06	7.580406e+04	4.818895e+02	-1.801541e+18	1.861226e+00	
6.318210e-04	3.521635e-03	3.316436e+00	9.379741e+02	1.284453e+02	4.221563e+06	8.014590e+04	4.817574e+02	-1.780122e+18	1.835453e+00	
7.539760e-04	3.466501e-03	3.260731e+00	9.282761e+02	1.259783e+02	4.151471e+06	7.880736e+04	4.816433e+02	-1.786725e+18	1.846828e+00	
1.078364e-03	3.728245e-03	2.984619e+00	8.509782e+02	1.473795e+02	3.799928e+06	7.221509e+04	4.813730e+02	-1.819245e+18	1.857656e+00	
2.074319e-03	4.472667e-03	3.132854e+00	4.143219e+02	5.948634e+01	3.761783e+06	7.320350e+04	4.659780e+02	-1.814369e+18	8.738022e-01	
2.324331e-03	4.730471e-03	3.159911e+00	2.477373e+02	1.649611e+01	3.727738e+06	7.283796e+04	4.600398e+02	-1.816173e+18	5.175830e-01	
2.616546e-03	4.803764e-03	3.175725e+00	2.508447e+02	1.392895e+01	3.747575e+06	7.321635e+04	4.601707e+02	-1.814306e+18	5.210883e-01	
3.214599e-03	5.071068e-03	3.165762e+00	1.842097e+02	-5.468703e+00	3.715306e+06	7.266420e+04	4.581996e+02	-1.817030e+18	3.843237e-01	
2.824349e-03	5.113814e-03	3.190475e+00	1.212579e+02	-2.114120e+01	3.719283e+06	7.276870e+04	4.555112e+02	-1.816514e+18	2.555643e-01	
3.086044e-03	5.471406e-03	3.208047e+00	4.814534e+01	-4.409085e+01	3.716542e+06	7.272005e+04	4.528964e+02	-1.816754e+18	1.352479e-01	
3.534444e-03	5.352460e-03	3.179126e+00	1.119687e+02	-2.500235e+01	3.709598e+06	7.259408e+04	4.559814e+02	-1.817376e+18	2.389016e-01	
3.347164e-03	5.851060e-03	3.227499e+00	1.465091e+01	-5.330743e+01	3.725315e+06	7.287313e+04	4.512576e+02	-1.815999e+18	1.140833e-01	
4.365805e-03	5.745727e-03	3.219523e+00	7.076984e+01	-3.251101e+01	3.736987e+06	7.311546e+04	4.537317e+02	-1.814804e+18	1.606190e-01	
3.638293e-03	6.258340e-03	3.243964e+00	1.108830e-01	-5.491593e+01	3.736476e+06	7.307602e+04	4.503172e+02	-1.814998e+18	1.128908e-01	
4.867370e-03	6.084815e-03	3.226357e+00	4.252235e+01	-3.816332e+01	3.731594e+06	7.300304e+04	4.521730e+02	-1.815358e+18	1.178157e-01	
4.543325e-03	6.713306e-03	3.249198e+00	-1.141170e+00	-4.971637e+01	3.741472e+06	7.317185e+04	4.502039e+02	-1.814526e+18	1.020819e-01	
4.867078e-03	7.236664e-03	3.251280e+00	-6.758949e+00	-4.742959e+01	3.742255e+06	7.318515e+04	4.500137e+02	-1.814460e+18	9.830577e-02	
5.594037e-03	7.075099e-03	3.253098e+00	-4.351397e-01	-4.381635e+01	3.745866e+06	7.325748e+04	4.502031e+02	-1.814103e+18	8.984294e-02	
6.514333e-03	1.279167e-02	3.262705e+00	-4.269874e+00	-2.110228e+01	3.754832e+06	7.343059e+04	4.499805e+02	-1.813249e+18	4.402869e-02	
6.155661e-03	1.235275e-02	3.262319e+00	-4.653754e+00	-2.241765e+01	3.754360e+06	7.342134e+04	4.499760e+02	-1.813295e+18	4.682713e-02	
6.076398e-03	1.180459e-02	3.261941e+00	-5.429360e+00	-2.397718e+01	3.753843e+06	7.341109e+04	4.499648e+02	-1.813345e+18	5.028714e-02	
5.667065e-03	1.012362e-02	3.259643e+00	-7.853151e+00	-3.070930e+01	3.750848e+06	7.335207e+04	4.499150e+02	-1.813637e+18	6.488609e-02	
5.720504e-03	1.061528e-02	3.260558e+00	-7.065508e+00	-2.850208e+01	3.752064e+06	7.337599e+04	4.499373e+02	-1.813519e+18	6.009274e-02	
7.915078e-03	8.429905e-03	3.259760e+00	-8.503452e+00	-3.032728e+01	3.751442e+06	7.336412e+04	4.499703e+02	-1.813577e+18	6.446870e-02	
7.553181e-03	1.179540e-02	3.262639e+00	-6.533616e+00	-2.241777e+01	3.754429e+06	7.342218e+04	4.499400e+02	-1.813291e+18	4.775498e-02	
8.915058e-03	1.052559e-02	3.262624e+00	-9.138399e+00	-2.319587e+01	3.754074e+06	7.341469e+04	4.498981e+02	-1.813328e+18	5.099038e-02	
5.817839e-03	1.121077e-02	3.261296e+00	-6.161782e+00	-2.613033e+01	3.753037e+06	7.339523e+04	4.499549e+02	-1.813424e+18	5.492697e-02	
6.930567e-03	7.631629e-03	3.254119e+00	-4.091736e+00	-3.593544e+01	3.747203e+06	7.328520e+04	4.502340e+02	-1.813966e+18	7.413052e-02	
5.499850e-03	9.290258e-03	3.257744e+00	-9.177000e+00	-3.506683e+01	3.748221e+06	7.330026e+04	4.498560e+02	-1.813892e+18	7.424819e-02	
5.602559e-03	9.679497e-03	3.258698e+00	-8.584361e+00	-3.291720e+01	3.749548e+06	7.332645e+04	4.498866e+02	-1.813763e+18	6.965860e-02	
9.191895e-03	9.026212e-03	3.261618e+00	-8.716368e+00	-2.541510e+01	3.753461e+06	7.340340e+04	4.499612e+02	-1.813383e+18	5.496470e-02	
9.983607e-03	1.039985e-02	3.263112e+00	-8.833530e+00	-2.180787e+01	3.754769e+06	7.342837e+04	4.499154e+02	-1.813260e+18	4.811475e-02	
1.057879e-02	9.803176e-03	3.262312e+00	-8.441935e+00	-2.188918e+01	3.754270e+06	7.341942e+04	4.499657e+02	-1.813304e+18	4.798351e-02	
5.325395e-03	8.359727e-03	3.255062e+00	-9.937878e+00	-4.035310e+01	3.744914e+06	7.323542e+04	4.498216e+02	-1.814212e+18	8.519925e-02	
5.429299e-03	8.867179e-03	3.256575e+00	-9.740674e+00	-3.742884e+01	3.746641e+06	7.326915e+04	4.498244e+02	-1.814046e+18	7.925205e-02	
5.120198e-03	7.788499e-03	3.254294e+00	-9.178850e+00	-4.411278e+01	3.744438e+06	7.322593e+04	4.498647e+02	-1.814259e+18	9.238854e-02	